# LAMMPS data file written by OVITO Basic 3.7.11
2048 atoms
3 atom types
-0.0420621167 28.0935412639 xlo xhi
-0.0420621167 28.0935412639 ylo yhi
-0.0420621167 28.0935412639 zlo zhi

Masses
 
            1   12.01100000             # C
            2   10.81000000             # B
            3   47.86700000             # Ti
 
Atoms  # atomic

575 1 3.63521 2.93663 3.40205
1852 3 0.898619 1.45951 1.12926
872 3 1.00952 1.24135 2.53214
648 3 3.8704 0.745412 2.79024
1791 2 3.73272 1.66866 1.22562
935 2 4.0201 4.55044 1.7118
1330 2 4.78755 0.348556 3.96679
1800 2 0.744752 4.26462 2.82833
718 2 2.41017 0.908315 2.21961
1179 1 2.11998 3.16474 0.2648
1094 2 5.4946 3.89493 2.53555
909 3 5.37941 3.67737 4.25973
249 3 6.82696 4.15822 1.92256
729 3 8.91073 2.98899 3.97873
82 3 8.03726 3.79527 3.08848
900 1 6.86787 2.22639 3.52502
523 1 5.89364 2.00491 0.549081
281 2 9.09275 1.25431 1.85273
995 1 8.51275 3.40606 0.565304
264 1 8.94901 0.681549 4.10481
943 1 5.59399 4.59876 0.246369
1261 2 10.122 2.51423 3.14869
1133 1 12.2693 2.99594 1.40084
1918 2 10.3243 1.73553 1.22387
511 3 11.4376 3.19692 3.46446
1611 3 26.6693 13.6001 11.1124
754 2 12.4528 2.51382 4.55794
342 2 13.8441 3.19563 3.88492
1789 1 13.927 0.452219 1.66972
1840 3 14.113 2.86319 0.993525
1633 2 15.9048 1.47543 6.27075
618 2 1.8682 13.6972 1.23727
850 2 18.8951 0.617612 2.30782
1063 2 17.9203 1.34101 3.56675
1028 2 14.4141 2.27039 2.5721
521 2 17.2318 0.702141 0.899362
1474 3 16.0782 4.48521 3.60672
1889 2 15.4066 3.40674 2.85308
1438 2 18.9539 4.02867 0.761606
1524 1 24.3858 0.613038 3.43517
1997 3 18.6727 2.52392 2.81447
1799 2 21.8804 2.5498 5.01762
579 3 18.6914 3.82779 2.49353
2024 2 22.5904 1.17271 1.68709
1684 1 20.95 1.44684 2.8269
114 2 23.2513 1.93909 0.00992707
1723 1 23.6391 3.08678 2.43059
627 2 0.28064 2.75402 1.41629
393 2 24.3933 0.826593 1.32302
1845 1 27.4308 1.75687 2.7207
1070 2 25.5659 3.81114 0.160375
705 3 26.4764 3.61799 1.52084
53 2 25.9005 0.874592 0.988516
2035 3 23.6777 3.33029 0.258586
887 2 24.6677 2.71498 4.57087
1726 1 16.3178 3.0746 0.43855
1053 1 3.32019 7.17105 2.04018
1687 2 2.98243 5.23 0.772034
29 2 2.42241 4.65322 2.25259
388 3 1.79315 8.69478 3.49981
841 2 1.42219 9.34573 1.5125
40 2 2.16166 4.46372 3.94325
238 2 14.2781 13.4771 12.9659
1898 3 5.43779 6.58388 1.09505
138 1 7.76939 5.74484 1.6574
155 2 8.22893 8.33407 1.03886
1218 3 6.70319 8.86637 2.38904
95 2 5.6902 7.79613 1.98094
1298 2 8.7646 7.08592 3.93593
1694 2 9.82028 8.57641 3.54233
1258 2 7.90757 7.91763 2.89056
1935 2 12.3044 7.53828 -0.0308844
119 1 9.61194 5.05368 3.11154
726 2 9.86745 5.75679 0.658759
1829 1 10.4181 8.74257 1.26213
733 3 13.0077 4.97099 0.79613
1843 2 11.6422 5.58957 0.287387
956 2 11.8172 6.42965 3.03878
301 3 10.6914 7.41708 2.85685
231 2 13.637 7.57989 1.17333
1164 3 12.5152 5.89059 4.58382
1880 2 12.8573 5.78832 2.02799
1367 1 13.5866 0.749325 4.65126
530 1 14.9106 8.47252 2.78939
547 1 17.2592 5.41794 2.20344
1509 3 16.432 7.69525 1.1266
153 2 17.4473 8.00421 2.19301
701 2 18.2876 6.8829 3.12835
1365 2 19.9072 6.397 3.99403
776 2 14.049 6.64712 3.94009
196 2 20.7961 3.58562 1.58069
719 2 19.8274 6.18577 2.33159
1858 1 20.282 5.33314 0.02734
629 2 20.8382 6.90521 1.16103
189 2 19.0905 7.70819 0.262067
1615 1 21.9546 5.89206 2.63287
1123 2 23.6043 7.6517 3.59828
613 1 21.0859 0.252769 9.69151
1265 2 0.55933 8.11642 0.522812
563 3 26.8584 6.41867 2.5446
545 3 23.1979 7.95944 2.17123
419 1 25.2485 5.29566 2.13393
492 2 27.9006 9.35405 1.03007
1742 2 26.5378 7.18336 1.25189
1041 2 24.7041 7.19407 1.51579
1654 1 27.8867 5.12644 1.01244
856 1 26.0848 8.49547 3.20667
1454 1 0.237499 7.12839 3.919
1098 2 3.53651 9.79745 1.27787
671 1 0.496712 10.4783 3.37569
223 1 3.78011 12.1035 3.58956
1870 2 2.88865 9.79434 2.86265
524 3 0.424265 11.7413 13.0407
740 3 0.795469 13.016 2.14696
1440 1 3.97638 9.07855 4.61278
104 2 24.7595 11.7408 0.507501
80 2 25.2418 13.1362 11.4918
98 2 4.3414 11.1737 0.321142
1425 2 10.0142 10.0319 3.0619
1075 3 5.55486 10.1651 4.48132
421 2 6.62903 13.1121 1.22517
130 1 5.62903 10.4841 2.2211
1175 3 9.28979 12.4612 1.19787
1249 2 5.68309 13.4968 2.57878
520 2 9.51439 11.3357 2.2
1040 2 5.17181 12.2736 1.30785
1545 2 9.13838 10.788 0.625697
1708 3 13.4039 9.42841 1.51931
1019 2 13.6289 10.6338 2.19654
1069 3 10.8279 12.7796 3.19498
1653 1 11.5019 12.2478 0.960243
146 2 9.39642 13.2529 3.30878
1531 1 13.8344 11.8739 4.31952
327 3 10.7176 10.6805 -0.217189
1354 3 13.6261 12.118 1.72937
1733 2 14.7879 11.4114 0.505232
100 2 16.7388 9.77673 2.93898
942 3 18.1938 10.4952 3.91278
1581 1 15.3798 13.2029 2.58261
1402 1 18.8027 12.6475 1.0863
789 3 17.497 13.2849 4.62616
1331 2 15.7986 9.87595 4.57795
1268 2 19.2255 10.8912 2.69695
282 2 16.2735 10.4234 1.49289
654 3 16.1261 10.739 -0.0431783
1262 2 23.9355 0.788387 13.5676
762 1 21.4004 9.09947 2.73423
1949 2 20.4682 11.7346 3.08897
451 2 22.549 11.0511 3.49375
844 2 19.2913 10.0523 1.18265
527 3 20.546 12.8419 2.16108
465 2 21.6316 10.0357 0.911903
75 2 21.2412 12.9791 0.779651
99 2 27.6904 12.3965 2.53043
1637 2 26.3253 10.3881 1.09095
1875 3 23.8107 11.7929 3.27131
567 2 5.4855 13.2143 7.98674
90 2 25.9036 12.9792 1.20015
1316 3 25.4967 11.4774 3.44274
10 2 26.4019 11.3624 2.23004
5 2 26.3644 10.4896 4.60861
1224 2 23.611 13.4548 3.37479
392 2 1.28553 0.886231 5.53007
224 2 1.52667 3.47661 5.14964
874 1 1.22383 1.1446 7.64251
1977 3 0.746677 2.26265 5.77398
1494 1 3.80409 2.03408 5.98157
535 3 0.572029 3.44899 8.15031
958 2 1.64731 3.4032 7.03716
358 2 27.1197 4.61902 3.23677
674 2 25.7427 12.0656 13.0769
1776 1 6.98752 -0.041357 6.1507
1587 2 4.78619 1.64838 8.17553
1134 2 3.80128 0.313327 7.12853
4 2 4.82716 3.39575 7.50514
202 1 8.11258 3.37467 5.81434
354 2 6.78847 1.32023 8.08789
665 3 7.84282 1.58432 7.06576
1658 2 9.27074 1.98639 7.52888
877 2 5.55984 3.4213 5.63147
340 3 9.33113 3.09132 8.80975
616 1 7.38269 4.07558 8.61893
600 2 10.9902 0.625117 5.68302
593 3 11.6901 1.8922 5.46788
193 1 11.3208 4.7026 5.81389
1772 2 11.8275 1.97882 7.03961
1922 2 13.3252 2.76688 7.92109
205 3 10.6547 2.79542 7.91051
1204 1 13.8212 0.0948567 8.71973
170 3 27.6361 9.68901 10.1794
620 2 14.877 4.20072 6.24537
1926 1 9.90734 5.15297 8.06808
1271 2 13.2042 4.43218 6.90284
1032 2 11.8605 3.90048 7.69027
361 2 14.9122 5.17443 4.12235
1767 2 15.7958 0.472907 9.29454
1695 2 16.9111 1.80543 7.52595
459 3 17.4985 1.24208 6.14018
429 2 14.1551 2.69602 9.37391
971 3 14.6261 1.82939 5.63389
317 2 14.1335 2.83752 6.5027
1532 3 18.8674 4.6169 6.92641
1950 2 18.2208 1.88089 4.99712
1355 1 16.7748 4.88359 7.65396
36 2 18.9286 4.27109 8.8637
303 1 18.6776 4.23806 4.88834
1109 2 27.3719 11.0697 9.48022
308 2 16.2634 2.30015 9.36459
1060 1 23.1853 -0.516173 7.50687
923 1 19.1419 2.58636 7.04544
783 3 20.8737 0.289701 7.39078
242 2 21.2419 1.64 7.84573
1468 3 21.682 2.80728 6.93888
34 2 21.3576 3.7929 5.6276
590 1 20.8035 4.03712 8.73059
1932 2 19.2805 0.157544 6.12695
1552 3 24.8277 4.0665 5.10993
1463 1 25.5252 1.10355 6.22906
443 2 23.2591 1.76755 4.82317
1293 3 23.9671 0.399302 5.64919
1475 3 27.6904 3.88866 9.00623
569 1 23.4092 3.52676 6.37136
1467 2 24.9686 3.89772 7.97395
1423 3 25.2552 2.46576 7.84982
1191 2 25.1354 1.49992 9.09279
438 2 27.7011 1.26734 5.72152
1915 3 25.9892 3.87857 4.37829
239 2 23.7425 6.01193 9.24426
903 3 2.49761 6.20028 4.74953
1420 3 1.63015 6.764 5.50567
1385 1 0.903959 5.46584 7.67676
386 1 1.33372 8.77469 5.84828
415 2 0.677892 7.75326 9.06142
1482 1 3.64199 6.80566 6.60899
1192 2 2.53191 6.4226 8.92807
1100 2 4.17467 6.82588 9.0038
1662 1 7.81376 10.0488 4.72642
992 2 5.38191 4.95863 6.9055
1323 3 5.60961 6.08521 5.93371
1760 2 6.83944 5.61408 6.22651
1491 3 8.96433 5.59115 6.27958
1897 3 9.03444 6.22196 5.09803
1084 1 7.43733 7.42077 6.93777
1447 2 4.81585 8.94329 9.13577
1944 2 5.82772 7.78522 8.37559
1701 3 6.6087 7.00988 9.33328
463 1 10.8569 7.33559 4.822
1556 3 9.79996 8.5772 9.18383
344 2 9.09829 7.2143 8.63602
997 2 12.1984 5.21407 8.30023
103 3 12.3671 8.49952 5.76198
625 2 12.8567 8.19831 4.47455
1343 1 11.4272 8.37697 7.7669
1634 1 13.5075 6.96804 6.84915
1626 3 13.6466 6.45401 9.12187
1661 2 14.0575 4.64613 8.6054
1338 2 14.9996 5.77347 5.82917
817 2 15.6656 6.74476 7.22336
339 3 17.5387 6.7148 7.60905
385 2 16.7698 7.60117 8.44264
1058 2 18.7139 7.39617 6.7434
1086 2 15.5293 9.00278 7.91806
668 1 18.0633 9.16709 8.53269
1384 2 20.2473 5.00454 6.43889
1939 3 19.3579 6.54325 5.4677
638 1 18.4667 8.41016 4.94238
1542 3 21.5802 7.56555 5.27567
908 3 19.4313 8.77381 7.06006
1488 1 21.3041 6.87152 7.15086
1904 2 22.3716 8.57009 6.33866
780 3 22.2722 6.65227 8.96775
440 3 22.4287 8.95012 7.83005
1702 2 20.6592 8.68491 5.69535
793 3 26.3554 7.75902 4.96973
953 2 24.7527 7.91237 4.93447
328 3 27.5077 6.56484 8.87056
1651 2 23.2176 7.01174 5.31607
39 3 24.639 5.39596 8.15883
1777 1 25.7663 6.33811 6.04607
294 2 26.9335 5.19729 8.94759
1798 1 24.0627 7.51076 7.65285
948 2 27.4295 9.08314 5.09794
1603 2 26.3079 6.96037 8.20946
175 1 26.9736 9.05557 8.00747
214 2 1.36694 12.1515 5.17549
324 2 2.69768 12.7205 5.70557
1794 2 3.72268 11.5002 5.98666
684 2 1.2599 12.3819 9.94365
703 2 3.0539 10.4237 7.06083
217 2 0.489017 10.4447 7.65153
1559 3 3.49319 9.09431 6.42426
912 1 3.74823 12.394 8.09453
937 2 0.819872 12.083 8.03999
1351 1 2.48043 9.17044 8.6021
1045 3 17.9519 9.18488 13.9468
1225 3 4.97084 11.3332 5.03451
2022 2 7.64403 13.9198 9.20821
1026 1 8.90058 14.226 5.79168
1967 3 11.5995 0.0734648 9.47383
1065 3 7.75021 10.1324 6.82828
1377 2 17.4126 13.2534 3.12764
1452 1 5.60265 10.0388 7.30809
864 3 5.91304 11.962 8.01356
858 2 9.06326 10.5282 6.49565
13 1 8.80881 10.6809 8.73581
261 1 15.5508 13.8459 7.21925
61 3 8.84998 12.7502 9.1807
749 1 11.7169 10.8425 6.50589
1912 3 13.8503 11.7826 6.16457
1802 3 9.97995 11.4926 5.19444
1279 2 11.1128 11.662 4.21724
1421 3 14.1786 12.201 7.41459
151 2 12.7968 9.98881 8.47503
498 3 11.1822 10.13 8.67579
2037 3 13.3771 12.4165 8.50853
1927 1 11.7711 13.7352 9.07755
212 3 10.8525 11.412 8.9683
1092 1 14.2628 9.7395 6.32612
1375 2 15.3113 11.6596 6.02919
1245 3 16.4946 13.1299 9.34543
724 2 14.3081 9.64689 9.08814
880 2 15.8819 13.6148 5.05233
508 3 17.3114 9.92574 5.27825
1118 2 17.9194 11.2651 7.68851
1972 3 15.8019 10.2525 8.87094
102 2 16.7358 9.70785 6.62539
124 3 17.2357 12.6881 8.03789
771 1 18.3782 11.5804 5.54465
630 2 16.2707 11.6823 8.79025
1806 2 23.5643 10.2272 8.40633
1598 2 20.9228 12.1087 5.71144
863 3 21.3905 11.7438 4.388
951 2 20.3746 10.3399 4.51835
87 1 20.7107 10.4052 7.65156
197 2 20.9546 13.196 7.18577
400 2 22.2137 11.8087 8.49293
1121 2 27.9929 12.4706 5.73279
585 2 24.7497 9.49805 6.89052
602 2 22.5352 11.6249 6.26859
491 3 27.7877 13.7762 6.435
1839 2 28.0968 10.7581 5.44577
688 2 25.5609 12.6763 9.82637
1781 1 26.9602 12.3211 7.65813
1299 2 25.6376 10.7458 6.13876
484 1 25.5 10.2964 10.5688
660 3 24.093 10.9358 6.51675
1971 2 24.0549 12.2708 12.8051
1193 3 27.2265 11.8358 13.1464
401 3 25.9504 11.1251 8.80288
426 2 7.85561 0.0882507 1.64334
1239 2 1.60317 1.06421 12.3068
1974 2 4.21997 0.161879 11.9178
621 3 1.63765 0.748724 10.8107
1013 2 1.75384 2.61669 9.76808
967 2 1.70949 4.38754 9.85135
1410 2 21.4935 12.2586 13.2094
751 1 1.14936 3.52578 12.5394
1077 3 0.897246 1.27647 9.75288
712 2 8.15657 0.0864086 9.21316
49 2 9.11144 2.22244 12.2388
1600 2 5.41732 2.98923 9.12473
634 2 5.35039 1.48797 12.5246
1236 1 5.87966 3.92512 11.2072
993 2 6.26491 2.59186 13.1072
1183 1 7.30497 0.583912 13.7706
60 2 6.72819 2.31931 9.70017
72 3 7.78552 2.29494 12.4076
364 1 8.47473 3.66859 10.6759
128 2 6.65153 4.39411 13.6633
1044 2 5.95093 0.254737 11.7431
455 2 13.6396 3.87751 13.2653
950 2 10.5393 0.243926 12.9404
2048 3 10.5197 1.79862 12.4301
437 1 9.78891 0.337796 10.8133
427 2 10.57 3.00799 11.615
1106 1 12.0654 4.85713 10.8139
1050 2 14.2242 0.0960632 12.8065
662 3 15.2071 2.04765 10.1632
767 2 16.9294 0.568794 13.6401
1705 2 15.4286 1.09012 13.4073
812 1 16.1989 0.69862 11.4611
356 2 16.3924 2.73612 12.7346
1203 3 17.8056 3.14873 12.3967
1878 2 17.4859 4.37227 11.4918
640 1 15.2677 4.36725 10.4907
1734 2 18.1396 1.46004 12.6126
1681 2 17.9133 1.25163 9.17302
391 2 15.2682 4.18846 12.9617
1630 3 21.1944 0.0486471 11.9176
1362 2 23.6003 0.273588 10.1618
663 3 18.6418 2.53196 8.90814
1405 2 18.2607 3.11223 10.2253
1439 3 20.0641 0.874039 11.9071
144 2 21.6245 4.22565 11.156
578 1 23.1023 1.73374 11.719
270 2 21.3169 3.43962 12.5379
556 3 22.2885 3.03719 10.3221
1770 3 22.1692 1.885 9.66794
925 1 4.08137 13.9576 0.941049
1752 2 20.4311 2.16642 12.7536
1725 2 19.9949 12.1571 11.1334
1953 2 27.562 0.548179 11.69
1886 3 0.227565 1.68215 12.6984
461 3 26.4921 1.53713 9.75484
886 2 23.098 4.36361 10.0744
1283 2 27.7386 2.03251 9.79457
1429 1 26.0559 1.48342 13.7664
1740 1 25.3202 3.80063 10.229
1819 2 25.5242 3.57593 12.4033
1909 3 1.37964 5.05924 11.0648
1894 3 4.63043 6.10155 12.2392
1607 3 2.05107 5.50045 12.0852
1042 1 3.71809 7.79531 11.2148
1141 1 0.47305 7.73452 12.6621
432 1 3.13355 6.05175 13.7934
267 2 7.93398 5.88756 9.63049
870 3 4.53475 5.48924 10.7407
1597 2 7.11392 7.08048 10.8382
1388 3 8.20477 7.2142 11.9514
1406 2 5.59222 5.7122 9.32666
1689 1 6.64131 6.5845 13.8333
1538 2 8.74806 9.56271 12.2228
273 2 8.93177 7.29869 13.1974
716 2 7.30579 0.961119 10.738
1757 3 10.4115 4.71943 11.6469
1348 1 9.97395 6.58553 10.8552
683 2 11.1033 5.61867 12.7097
1287 3 12.2101 7.69533 10.7651
1563 3 12.1441 6.40466 13.3808
1832 2 11.8021 7.24496 12.2448
2031 2 13.4105 7.33474 13.9041
387 2 12.2427 6.62194 9.65237
985 3 9.53201 5.95789 13.3399
907 3 13.8391 4.45171 11.9928
1842 1 17.994 6.08828 9.91449
1580 3 16.0992 7.39266 9.84959
190 3 17.3564 6.10114 12.2068
829 1 14.3401 7.18235 11.5921
1710 2 16.05 5.63822 12.452
899 3 15.0755 6.5801 13.5058
296 2 15.2246 6.27598 9.20379
1844 2 18.6955 6.1024 12.3999
1993 1 23.519 9.65033 12.8988
1336 2 19.6514 8.37475 9.71298
878 1 19.4906 9.05077 11.9316
1398 2 20.6477 7.19559 11.0306
248 2 20.5391 6.88621 9.46555
89 2 21.5539 5.83981 10.4989
795 1 21.1375 5.7349 12.7059
2025 2 21.8581 7.7185 11.8182
112 2 22.429 7.01432 13.7293
1217 2 19.9829 10.1361 9.68862
474 3 18.7462 8.06715 13.8275
209 2 26.7173 8.26535 12.6658
538 1 23.6519 5.73127 12.266
265 2 25.741 5.42077 11.5529
1476 2 25.7965 6.40858 10.4638
1301 3 25.3819 7.4045 9.23457
1000 3 23.3442 8.05757 11.6444
211 2 24.7503 8.53935 11.731
1361 2 25.7612 7.12237 12.2003
885 3 1.05853 13.3026 12.8243
605 3 4.40692 13.0696 11.0128
1201 3 2.76514 13.1292 10.3242
1112 2 0.800409 8.77554 10.1114
1177 1 3.41722 9.52827 13.2185
996 3 4.07986 11.7145 13.3548
696 2 1.9393 9.3628 11.2749
807 3 3.34427 9.91495 11.0348
1080 1 2.33995 11.7324 12.1457
228 3 6.33341 0.32992 3.66537
1673 1 8.37836 13.1093 11.2091
1543 2 8.34898 11.6612 13.8881
1105 2 5.74522 11.304 9.30641
892 2 6.19305 9.95456 13.2676
1062 2 7.57104 8.91841 9.8392
1104 3 8.34946 9.85179 10.7276
916 2 4.52016 10.2093 10.098
1350 2 8.96148 11.1838 12.1445
478 3 7.37313 9.26662 13.1126
1135 1 5.12168 11.49 11.6437
371 2 19.232 11.0494 12.4528
709 2 18.854 10.7261 10.6785
1719 2 13.3915 8.29249 9.86064
1861 2 9.9354 12.1817 12.9697
1176 2 12.7031 13.3253 12.4239
348 2 11.7729 11.8677 12.8344
1995 1 13.2728 11.9773 10.7238
836 3 11.3246 8.92639 13.1834
938 2 11.9704 10.0992 12.4973
1659 1 10.9259 9.38187 10.5878
760 2 1.59161 14.097 8.48035
16 2 21.7674 11.3391 11.9397
1113 2 15.2925 13.9463 10.2026
57 3 16.0119 13.6636 13.6057
1698 2 17.6054 10.6351 11.9411
1810 1 16.2707 9.37263 10.689
1089 2 14.3858 10.9445 12.5654
1929 2 16.0807 11.7253 12.4018
1219 3 15.0569 11.575 11.4223
746 2 16.2785 10.5301 13.2472
278 1 17.7701 12.6602 10.8207
1025 2 22.3513 13.2658 12.2831
1024 1 21.7249 9.08567 10.2185
707 1 23.2749 12.0736 10.49
1036 3 20.3854 13.0218 10.0541
1774 2 20.88 11.36 9.33697
378 3 25.7004 3.35671 13.917
1022 1 15.3064 8.73736 13.8137
1484 1 17.8757 12.2454 13.8298
27 2 9.74946 8.90347 13.5744
739 3 4.56959 0.191381 -0.0417869
773 2 2.64311 3.95562 18.8245
1672 2 1.67673 1.46703 15.3061
1010 3 1.6782 4.74497 14.2106
1751 2 4.21423 2.29258 17.1929
1125 2 1.00638 2.82392 17.9907
1227 1 2.67941 3.58028 15.6212
1342 3 2.0847 -0.0380223 14.7
1056 1 3.60537 -0.013805 16.9535
782 3 5.26467 4.10179 17.1427
1091 1 27.8527 4.203 16.7774
525 2 0.506371 2.23787 15.6563
1978 2 1.97858 1.85604 16.9665
1158 1 3.62813 0.780272 13.6042
609 2 5.97465 0.504393 16.0641
1137 3 5.88044 1.55958 17.0912
457 2 6.42399 3.07936 17.4847
1792 3 7.63043 3.487 18.1728
1562 3 8.92453 2.52222 15.2875
686 2 9.31158 1.1293 18.4311
1198 3 8.41016 4.03403 15.8083
1049 1 9.62429 3.2612 17.4926
611 2 9.0083 1.19866 14.4865
256 1 10.6974 1.1928 16.3841
827 3 11.8357 2.53207 14.9327
1847 2 14.0284 3.92773 18.7172
337 3 13.1404 3.06703 14.5563
1608 2 27.7177 -0.00763823 24.5759
926 1 13.9492 1.33235 19.3247
1518 2 15.9723 3.06245 17.7894
919 2 16.6094 4.18323 16.4647
1746 1 19.2697 3.20243 16.2273
1882 1 15.8946 2.5033 14.9566
165 1 20.4175 0.919299 17.5269
1231 3 21.6357 1.33522 15.769
200 2 22.3871 2.73529 15.4717
1122 2 22.4721 4.50826 15.9943
1988 3 18.9317 0.389919 15.6346
1223 2 20.4876 0.820296 15.0107
957 2 22.7045 0.891307 16.8819
798 2 22.6584 1.17278 14.4298
715 2 19.2001 1.56335 14.3208
522 1 24.9055 2.9778 16.6615
1947 2 27.0747 2.84958 14.8699
2039 2 26.1154 3.3267 18.3564
1076 3 27.5884 2.23434 17.6109
1966 2 26.9379 0.890088 16.5952
838 3 0.870952 6.86519 27.7644
310 2 10.4287 4.24215 27.8903
409 3 14.726 0.0843371 17.2911
183 2 0.447628 5.54965 15.1749
1442 2 0.375951 9.45313 17.1191
2047 2 1.59938 6.86924 16.2539
758 3 4.61574 7.9345 16.4677
232 2 3.15768 7.36384 15.904
1335 2 2.08674 7.71062 14.3734
83 2 2.43357 5.64558 17.5676
1986 2 3.81935 7.62436 17.6574
2004 2 3.8619 4.74362 17.4558
332 3 1.33919 9.08999 14.2518
425 2 4.67107 8.9667 17.8419
78 2 0.692542 8.01563 17.3802
1498 3 7.52102 4.65215 14.6215
1149 1 6.09824 5.41675 15.8217
2033 1 9.25551 5.90985 15.5975
1138 3 4.96345 6.34852 14.7406
2007 1 7.72255 8.44911 15.4401
1215 3 7.43745 8.31715 17.2818
110 2 4.78945 7.86204 14.8948
250 2 7.68593 4.73721 17.1519
1466 2 7.97239 6.92694 17.4704
664 3 5.17675 9.05365 14.0237
852 2 6.05566 8.50768 17.0068
1656 1 8.60546 9.25342 18.4527
1797 2 11.8811 4.53665 18.5569
1683 1 12.6351 4.86919 15.109
1497 3 9.50636 9.16851 15.5392
1901 3 11.2955 4.71336 17.2008
933 3 10.3967 7.2335 17.4341
94 2 10.3905 8.3365 16.2838
532 1 12.8661 7.0147 17.4602
1226 2 10.6397 5.96532 17.7844
837 2 12.0277 9.10526 16.7347
422 2 17.8106 5.08935 18.2282
722 3 13.9988 4.94838 17.3289
486 3 14.2811 5.65929 16.2995
680 2 14.9111 6.54552 14.9862
168 2 15.3599 8.343 16.2417
1212 2 17.868 6.62241 17.13
741 1 16.1095 6.34184 17.9345
1856 3 16.8071 7.84702 16.8874
257 1 17.8413 6.2534 14.9228
1645 2 18.077 5.17794 16.5304
1379 1 26.3993 0.608026 26.7517
1511 2 14.6355 14.0553 16.8798
1110 2 19.4905 4.97662 14.4502
695 2 20.319 5.14845 16.0103
1087 1 21.6988 4.32274 17.9826
198 1 20.4654 7.18096 14.9194
92 2 22.5431 5.52011 14.4605
2006 2 20.9815 6.37212 17.1129
1613 2 22.5661 7.09903 15.5585
58 2 19.5337 7.61087 17.4347
1934 2 20.7009 6.84699 18.3969
1669 3 22.0969 8.66832 14.7263
1884 1 21.5195 8.78761 16.7187
141 3 18.8744 8.86908 18.2397
52 2 25.9857 5.20745 18.1621
201 1 27.6153 7.93605 15.4243
1324 1 23.4875 6.04838 17.1734
1984 3 25.7933 5.43301 16.5045
1879 3 25.2828 6.57714 15.5881
1782 1 24.8224 8.46227 16.0755
581 3 26.5791 9.00498 17.2294
1291 3 26.0266 8.45488 18.3023
940 1 26.4221 5.24101 14.6168
1975 1 2.53795 9.88475 16.4764
777 1 2.57926 12.6077 14.8794
1696 2 2.10933 11.9194 17.0208
1668 2 4.51797 13.0191 16.0698
1493 3 3.68664 11.81 16.5878
481 2 4.08432 10.6546 17.7199
1622 2 1.01608 10.5147 14.0273
1919 3 14.895 13.9639 25.3538
761 3 2.40988 13.3142 17.668
1395 2 1.87544 10.7671 18.5384
1758 1 0.820274 0.289479 17.894
752 3 9.49061 14.0624 17.8878
1801 2 5.08897 12.5153 14.1602
1763 3 6.715 12.8304 17.6966
781 1 5.84692 11.3944 16.3859
2032 3 7.79189 11.0652 15.1678
1216 3 6.76885 11.6287 14.2552
1023 2 8.70854 10.5435 16.4124
240 2 8.17152 12.7065 18.2497
1267 2 6.16103 8.44295 18.8791
514 2 10.851 9.87184 17.5804
1186 2 13.7993 8.62668 16.603
1519 1 12.0665 10.5646 14.8312
1240 3 9.67649 10.9085 17.6724
302 3 13.1744 13.1464 15.9314
1455 2 11.7895 12.5715 15.827
347 1 13.3192 13.0977 18.1438
583 2 10.7086 12.4481 14.4338
1130 2 10.4574 13.5289 15.5836
1131 2 16.9753 10.1948 14.6026
11 3 14.5269 10.9312 18.4392
126 1 18.3723 9.05311 16.1144
1082 2 15.4132 10.2747 17.1194
1796 2 16.8274 10.7592 16.3447
1247 2 24.7245 12.2879 14.4035
676 1 17.4982 10.7585 19.3115
825 3 17.9549 11.1891 17.0859
1585 1 16.9511 13.0173 17.258
402 1 14.9855 12.3331 14.7275
1273 1 19.4908 12.7683 18.2047
548 3 21.1709 11.3652 15.9142
1458 2 21.3945 11.0382 17.346
1237 3 19.366 10.1246 18.7598
792 1 20.8101 10.3404 14.4035
68 1 20.7802 13.3237 15.1737
2019 1 23.3987 11.1949 15.7134
534 2 14.0225 10.1689 14.1265
714 2 27.5499 14.0276 17.0706
614 1 26.3691 10.4459 15.7399
6 2 23.6948 13.2716 15.5329
413 3 26.7911 12.4464 16.6081
207 2 23.3743 10.2529 17.5517
1712 2 25.2344 12.4682 15.8678
1761 2 23.9852 12.3819 17.574
642 2 26.2813 11.9205 18.0348
25 2 24.6137 11.1177 18.4689
1020 1 26.6965 13.6421 14.4209
774 2 2.92188 1.79786 18.6997
1528 2 3.05455 4.2052 20.5435
1034 2 1.23382 3.50873 22.7645
277 1 1.03175 4.70833 19.6467
1529 2 0.740336 2.59339 21.2224
1277 2 1.39883 1.14353 20.3158
334 1 3.36709 1.75907 21.6095
537 3 3.88586 2.68823 19.5171
1866 2 4.96186 3.91826 20.0916
1432 3 26.0692 0.710928 24.6511
507 1 0.144185 0.350206 22.2976
1718 2 -0.0315231 4.50905 21.7581
1570 2 5.90064 1.19038 20.7408
1128 3 5.13136 2.37824 21.0142
584 2 4.87768 3.38879 22.2039
744 1 7.08605 3.60624 20.2357
1787 1 8.11797 1.15092 22.5037
2029 3 5.27413 3.14549 23.7027
1951 2 8.07013 0.868317 19.4574
1030 3 9.118 3.54572 20.9764
934 3 12.2062 1.00905 19.0928
1713 2 10.8439 1.69822 18.7824
1565 2 12.7741 5.07559 19.825
352 2 11.4447 1.24699 21.9892
1869 2 10.1243 2.74257 20.134
1404 2 9.26768 4.4411 21.9665
963 2 11.0991 1.33884 20.4089
1693 2 13.8347 3.12008 20.6234
1561 2 10.5786 2.39318 23.148
394 2 17.537 3.41816 18.4452
37 2 15.143 3.66826 19.975
373 1 14.7714 0.916617 23.0692
243 2 14.9753 2.07829 20.8605
1828 3 17.8626 0.924295 18.534
363 1 18.0389 0.891606 22.35
1614 3 16.1262 1.96076 21.9996
1266 2 24.1829 10.672 27.4145
1088 1 15.6487 4.04358 23.1008
1437 3 14.1087 4.703 20.6296
1288 1 23.1201 1.57563 19.0757
499 3 18.1316 2.14128 19.2528
1232 2 20.7729 2.69571 18.8677
1424 2 19.0117 0.717335 19.6506
1090 1 19.7475 4.3975 19.7359
1364 2 21.7886 3.21521 20.3647
984 3 20.2149 1.42756 22.1022
1328 3 20.8101 2.38397 22.7213
606 1 23.3945 2.91536 22.1472
657 3 20.8223 0.268483 19.4106
655 1 18.8903 3.65757 23.5354
482 1 21.8888 0.649115 21.4306
845 3 22.1196 4.33499 21.2159
977 1 27.3436 1.4806 19.5165
1535 2 25.0079 0.686201 20.0015
753 2 25.1252 1.81524 18.963
1479 3 26.0412 0.246814 20.9105
199 2 26.7177 4.55714 19.5192
135 1 25.6622 0.522111 22.9873
1145 2 26.7503 2.13762 21.4708
573 2 24.7245 2.34812 20.7062
1097 2 27.6828 2.89817 22.621
539 1 25.8195 4.01045 22.6682
1508 1 24.0403 4.46621 19.7918
815 2 3.8253 7.01033 20.319
1998 1 2.19449 8.68009 19.056
1717 2 3.84102 6.32378 18.6233
1527 3 1.30374 6.60338 18.356
2030 3 4.26545 6.70853 22.0414
1591 2 3.45577 5.52764 22.7789
1276 1 3.14591 8.3484 21.8954
1588 2 4.48821 8.80847 19.9813
840 3 2.35617 4.65192 23.2226
1526 3 0.23833 6.75233 23.0464
1534 2 3.87682 5.37048 20.9948
1994 1 5.9331 5.71535 18.6786
1923 3 7.29888 5.7665 20.3155
770 3 7.47577 6.93689 20.989
1647 3 8.01156 6.09597 18.9187
1211 2 8.24176 7.66218 21.9745
2017 2 7.24633 5.80096 22.6995
1730 1 10.2024 5.17747 20.3178
145 2 11.4299 6.2437 19.0502
990 1 12.4667 4.14181 21.8678
1152 3 9.61256 7.91149 22.66
1340 2 11.9286 8.06504 22.0427
1688 3 12.5807 8.46886 20.4262
1619 2 11.4396 7.26291 20.6341
1824 2 10.9275 6.92039 22.4763
1254 2 16.286 9.0482 18.0047
406 3 17.5913 4.80801 22.5351
2001 1 16.7955 5.25047 20.3551
725 2 15.7801 8.73133 19.8302
553 2 15.8285 6.92972 19.8835
842 1 14.1451 6.97282 20.5181
1888 2 16.6591 7.41644 21.371
1309 3 15.4047 7.25676 22.3078
1071 1 14.2465 8.91025 21.9696
139 3 18.1308 7.75272 21.5062
564 3 18.4313 4.53016 21.5614
69 1 18.1024 7.34827 19.4624
1169 3 15.6578 7.78975 23.4993
55 2 22.0117 5.56706 20.1304
876 3 20.4549 6.24011 19.7766
284 1 20.5961 6.24451 22.0161
369 3 22.3495 7.18142 22.9168
1599 2 18.5706 7.38555 22.8941
772 3 22.4662 7.43968 21.6197
1246 2 22.4789 8.69001 20.51
1205 3 22.9702 6.27264 19.2601
113 1 20.0744 9.02466 22.5409
45 3 27.0698 5.09689 20.9168
1925 1 27.2903 6.81836 19.29
543 2 23.6584 6.94826 20.328
1510 2 25.2786 7.06232 18.2147
994 2 25.7759 5.93838 21.44
1970 3 27.1747 8.65256 21.7592
229 1 24.5639 7.05709 22.651
947 1 25.0749 8.52256 20.4816
1003 2 26.9989 7.21465 22.1898
1871 1 0.804266 10.0245 23.2785
2046 2 3.46375 10.524 23.5069
1161 3 1.21922 10.7171 20.015
1014 2 0.600801 11.2507 21.3708
748 2 3.68308 12.8381 19.2747
1807 3 2.93078 13.1728 20.4774
1790 1 3.28898 11.0548 20.6448
1281 3 4.47919 11.7493 18.8583
1569 2 2.76842 13.132 21.9879
21 1 0.531488 12.6541 18.7616
430 2 3.07601 12.0939 23.5651
1868 2 4.19574 13.2956 23.1766
134 2 5.12865 9.31084 21.243
1427 2 6.7847 8.94311 20.218
1481 2 5.81461 11.2408 21.5194
106 3 6.73524 11.6844 20.2754
800 2 9.18459 10.8033 20.3382
357 2 8.08742 12.0168 19.85
1008 2 6.07669 11.9903 18.769
1368 3 7.97846 9.99612 20.6822
1628 1 7.94959 11.6532 22.0385
1700 2 5.94105 12.4605 22.8087
799 1 10.0604 12.4731 19.1256
2042 1 12.7774 9.69724 18.7401
1430 2 11.6289 9.60482 21.3481
1916 2 10.1661 11.8511 21.4673
1304 1 10.4826 10.1484 23.081
763 3 10.792 13.4579 21.0299
2005 2 12.1874 12.0451 19.9922
1241 3 11.9541 11.0746 21.3406
410 2 13.3915 12.1055 21.9241
972 1 8.70478 13.708 23.9074
1996 3 13.2992 13.1541 22.8413
1642 2 6.4743 13.3763 27.971
1525 1 14.5185 10.8914 20.3246
1081 1 15.7198 13.2282 22.2683
1144 2 16.808 11.147 21.5612
1154 3 17.0633 12.4138 21.017
898 3 15.3868 10.5994 22.1325
382 1 17.3016 9.14308 22.5685
439 3 18.505 12.1581 22.8409
1604 2 9.11004 6.36205 27.2839
1732 1 18.2371 13.7769 20.4918
1976 2 14.8779 10.656 23.5051
596 2 20.4304 11.3987 22.1106
121 3 21.0502 12.6889 21.6976
41 3 20.3851 12.9588 20.2781
1530 2 20.88 10.4028 18.6284
1470 1 22.5625 11.1076 21.341
274 3 21.774 9.96477 19.6762
1610 2 23.2239 9.89277 19.3239
882 2 26.2708 13.3047 23.1047
677 2 27.6657 13.163 22.0656
788 3 27.5307 12.1814 20.7226
1699 1 27.0587 10.1488 19.2146
125 2 26.722 13.5826 20.6278
286 2 24.6683 10.9718 20.4668
77 2 24.7717 10.0652 23.5569
1167 1 25.9753 11.0923 22.2451
1910 2 26.1025 12.1332 19.6308
446 1 25.4185 14.1397 18.6125
1756 3 23.4192 13.8666 19.4004
1621 2 0.381323 -0.0635251 26.286
476 3 1.73697 1.88748 23.6964
801 2 1.66684 2.56297 26.1103
1992 2 2.58613 0.741496 23.7511
1989 2 0.882491 1.23802 24.7319
395 3 2.74192 2.08026 26.8344
1636 2 4.09548 1.12853 23.8114
1568 2 1.12389 4.16785 26.8772
1143 1 1.97403 0.160623 27.9931
46 1 4.07241 0.585929 26.0108
2028 3 8.81604 0.159623 25.5914
742 3 8.6351 0.42477 24.2222
1441 3 6.96273 3.4477 27.437
289 1 7.28031 1.83369 25.8241
1286 1 5.11549 4.15376 25.5294
233 3 5.44919 1.72819 24.5816
26 3 8.5776 3.4102 26.3582
56 1 7.80303 5.11621 26.0135
1759 3 25.9184 11.0304 25.5383
936 2 10.2296 0.910165 23.4025
1616 2 14.0473 0.862035 25.6932
790 2 9.98708 0.944804 25.8532
306 2 11.6822 0.681388 25.5765
965 2 11.5444 2.20074 25.5646
79 2 13.4219 2.23761 25.354
383 3 10.5524 3.32743 25.1372
1803 3 9.67347 3.94977 25.7824
588 1 11.723 4.71061 26.214
247 2 10.4924 2.67415 27.7266
1572 3 16.8237 0.373195 24.0758
259 3 14.2243 0.812904 27.3176
1433 1 16.3575 1.64766 25.8258
1155 3 13.6573 4.04105 25.0284
269 2 16.6825 2.16953 23.5374
1590 2 17.007 3.5451 24.5849
1876 2 18.3699 0.638426 26.5857
867 3 16.4919 4.90311 24.8847
649 3 14.9916 4.70386 27.113
24 2 6.30602 0.361956 27.3452
982 2 23.4289 0.673649 23.4631
54 1 18.66 2.80426 26.7924
3 2 22.8667 0.366957 25.415
213 2 21.0417 2.60406 24.274
582 2 20.7716 1.9311 25.622
970 3 19.5896 2.25883 25.1611
981 3 21.9868 1.41368 26.2589
509 2 22.0651 2.80367 26.6352
1566 2 23.5929 3.91404 25.878
1456 2 22.9087 0.484667 27.4084
682 1 20.0859 0.465992 28.0362
1052 1 27.9487 3.29672 24.6565
495 2 24.3832 2.19225 23.8182
1464 2 24.4532 0.687203 25.1403
173 3 23.686 3.63456 24.3968
978 2 25.3027 3.4632 25.1135
554 3 1.23048 7.66341 23.0971
1676 2 1.8881 6.45055 23.8383
1357 2 2.38908 6.13793 25.3159
839 2 2.70212 4.86962 26.2839
1057 1 4.39571 7.63674 24.4234
88 2 1.3466 5.95974 26.8842
517 1 3.92193 6.42674 27.2928
975 2 4.9446 9.70776 23.1317
2003 3 6.76357 5.74797 23.948
164 2 5.8717 6.15493 26.3513
288 1 7.06263 7.9021 26.8401
1679 2 4.86417 8.68264 26.8559
959 3 7.24262 7.01309 24.5242
1284 2 6.35172 8.2076 24.9474
44 3 5.18001 7.4501 26.2486
1629 3 12.9271 4.7034 23.8445
397 2 11.0454 3.77676 23.5842
300 2 10.7599 7.23993 27.0027
1067 3 12.447 7.1397 26.8208
12 1 9.88899 7.23022 24.7213
1703 2 10.2686 5.17917 22.8294
730 2 12.046 6.42414 25.1399
2008 3 9.72196 8.21266 27.0181
1768 2 11.6316 5.44537 23.6569
372 2 10.5027 9.66137 25.2085
1766 2 15.0745 4.01218 25.5102