# LAMMPS data file written by OVITO Basic 3.7.11
2048 atoms
3 atom types
2.1582604264 30.2097395736 xlo xhi
2.1582604264 30.2097395736 ylo yhi
2.1582604264 30.2097395736 zlo zhi

Masses
 
            1   12.01100000             # C
            2   10.81000000             # B
            3   47.86700000             # Ti

Atoms  # atomic

421 2 3.32343 3.21817 4.41846
1075 3 3.30659 6.09884 3.79442
1717 2 4.47221 4.49024 3.69068
1134 2 6.09007 4.40548 3.49028
386 1 3.78319 4.93502 5.87812
1654 1 5.62839 2.76169 5.13313
298 2 5.90977 5.85914 2.77379
1324 1 22.5155 16.093 13.3824
148 2 3.3339 2.67552 2.91175
1885 3 6.98723 4.10408 4.76919
1544 2 8.80845 3.69417 4.92817
729 3 8.87497 3.14765 3.34403
1871 1 8.0696 5.73695 5.19277
107 2 7.6725 2.96884 6.35145
754 2 10.7492 4.98085 5.17951
82 3 9.11481 2.5884 2.2534
1204 1 11.3956 3.45698 2.59812
1055 2 25.5212 14.462 12.3977
94 2 9.98077 4.88263 6.68468
1481 2 11.5927 5.65289 4.12632
819 3 14.5954 6.07991 3.93834
1681 2 13.2045 4.59792 5.06251
1587 2 14.2666 4.63589 6.57512
303 2 13.4778 2.70936 5.7332
1308 3 16.2777 3.05668 4.08501
1977 3 11.9327 6.66444 3.05478
613 1 14.5316 2.35263 3.42147
1858 1 13.6461 5.24559 2.45505
1524 1 16.2527 5.03624 4.91344
1706 2 15.7487 3.82503 6.45637
1775 3 18.7285 6.50463 3.39308
494 3 19.9549 2.33374 6.01838
1661 2 20.913 3.32577 6.50405
1932 2 18.1467 5.66617 2.10169
34 2 27.4244 2.87712 8.78731
325 1 18.1119 3.13033 4.3057
1684 1 20.9174 6.10361 6.39268
1264 3 22.8218 2.95309 3.92548
672 2 22.8457 4.2386 3.45092
109 2 25.0666 5.80762 6.11421
838 3 25.6398 5.24771 4.76739
1925 1 21.0891 3.076 2.43436
909 3 29.9607 3.65894 5.05391
2035 3 29.4114 5.12926 5.47979
1338 2 25.2596 4.3598 3.39995
1816 1 26.1899 3.54363 7.1277
223 1 28.0078 4.92096 3.75282
850 2 28.7358 6.09272 6.17368
1782 2 26.7333 13.5349 15.0997
1687 2 27.396 6.79125 6.55056
1633 2 25.6381 6.26746 3.97477
554 3 28.5654 2.71124 3.39675
1041 2 29.8667 6.58245 4.86511
1270 1 13.0193 15.5652 9.96104
1166 1 2.2181 5.38326 2.10157
1526 3 3.43981 8.91792 3.14607
1839 2 4.6871 6.6047 4.31728
1845 1 5.52578 7.61091 6.33571
1637 2 3.80543 9.01016 5.83044
1898 3 6.14772 7.12078 3.80889
1109 2 2.95031 9.57228 4.67327
1662 1 5.39624 9.73478 3.88409
912 2 5.62291 10.196 6.34875
155 2 4.28316 11.0912 6.48274
978 2 3.7204 7.34392 2.96414
301 3 7.31031 9.88186 6.2042
546 2 8.68548 8.69767 2.40317
1534 2 7.30189 8.39947 3.27821
1330 2 8.04962 8.97888 4.87913
1899 1 8.4617 10.836 3.35858
1697 2 8.63043 8.15731 6.61182
1065 3 10.1058 8.64124 2.79884
836 3 11.7435 9.87481 6.37417
600 2 13.2106 7.74307 3.26438
827 3 15.5624 10.61 6.37478
138 1 11.6962 9.71749 4.02422
459 3 14.3732 7.21782 4.4873
1028 2 13.4793 8.29426 4.88048
1664 2 12.6163 8.80431 6.1199
817 2 12.1103 11.3343 6.51891
1474 3 16.1265 9.41311 6.66342
463 1 15.0817 11.2295 2.81048
1642 2 12.7571 10.5706 2.18062
1944 2 14.9225 8.50653 3.14146
1997 3 18.5128 8.25978 4.72553
1093 2 18.6311 11.05 4.11441
103 3 18.2161 9.22367 3.82264
1509 3 19.0961 6.94094 4.67063
339 3 20.4037 11.0626 6.08934
1418 3 20.572 9.75603 2.23799
789 3 19.3352 11.4198 5.22432
1631 1 18.0207 10.6507 7.13962
261 1 17.3369 7.91949 2.73445
1832 2 25.3072 7.61 7.44365
920 3 23.0244 6.8631 6.1638
1854 3 23.078 7.45684 4.96079
189 2 23.3524 8.09085 3.6119
1810 1 25.4568 9.96667 2.44003
349 3 24.5707 10.61 5.32299
719 2 21.8757 10.3987 5.55224
257 1 21.9581 10.0876 3.61205
71 2 23.1265 11.2791 5.93784
395 2 30.071 8.07118 2.51462
1432 3 28.945 7.69442 3.52516
419 2 27.7211 8.43149 2.7401
10 2 25.6407 7.81778 3.54596
1299 2 27.4188 10.0241 3.3157
7 2 25.987 8.98435 4.83942
1806 2 26.112 9.92341 6.12432
99 2 27.7237 9.13843 6.82318
506 2 28.0092 10.3292 5.62611
935 2 29.492 7.663 6.38692
858 2 3.56099 11.0079 3.6264
1469 1 3.61994 13.7334 5.38501
793 3 4.41709 14.2991 3.6451
1192 2 5.61596 14.0164 4.2919
1658 2 2.97552 11.296 5.24001
208 1 5.95642 15.2973 6.19162
156 2 3.14578 15.597 4.04584
1316 3 2.36962 13.3894 2.62435
736 3 7.77698 12.4824 4.3951
1225 3 6.78326 13.4398 4.33282
1604 2 7.05773 15.0894 4.13142
1016 2 8.59973 12.0292 5.77663
738 3 8.3028 15.1977 5.16305
42 2 9.73907 15.2835 5.17711
530 1 8.69547 14.4281 3.20786
130 1 10.8867 12.1307 2.89727
1696 2 8.57216 16.09 9.78189
694 2 15.5658 11.8031 5.25094
1537 2 11.1361 15.0967 4.26404
1245 3 14.7031 15.3679 2.70013
1113 2 12.9161 15.2636 3.38522
267 2 12.0505 13.9405 4.32786
1709 1 14.3471 12.4627 6.65157
1164 3 12.3075 12.4691 4.53755
474 3 15.5589 14.4278 6.30827
513 2 15.7387 15.6473 4.10746
160 2 16.7066 12.7952 2.15247
620 2 17.7818 12.7135 3.69925
1584 2 16.6956 14.6808 5.12381
733 3 18.5511 11.7673 2.79062
1873 2 3.41949 16.3565 9.3016
100 2 18.0464 14.4281 4.29882
988 3 20.8003 14.7738 2.59599
1224 2 18.668 13.8718 6.07577
314 2 20.87 14.8884 3.97064
1421 3 16.354 12.193 4.1528
1002 2 19.5271 15.0925 5.18466
85 2 23.0946 12.2285 4.2714
124 3 21.3376 15.2897 5.25176
1267 2 29.4861 12.2054 12.5496
1461 3 24.292 12.0626 3.45777
1554 3 23.1323 12.9848 6.36747
762 1 23.4235 14.7059 5.5151
865 2 25.5672 11.8313 4.28786
771 1 20.9526 12.9121 5.78299
320 2 25.5609 11.8407 5.89327
1334 2 22.9326 11.94 2.68721
660 3 25.7229 15.7641 5.0472
1477 2 27.1707 11.3972 4.78233
1482 1 29.2571 12.3104 3.96428
1875 3 25.5363 13.2435 5.31398
1311 1 29.0994 15.1431 4.58128
1058 2 26.6773 14.3048 5.08628
1108 3 28.1176 14.0809 6.0589
1190 3 27.2776 16.1296 2.97208
90 2 27.8281 14.5317 2.44777
1597 2 29.7827 12.4482 6.04871
382 1 26.751 12.4229 2.06253
194 1 5.26195 2.30439 9.64954
392 2 30.1461 5.45285 9.02647
1973 2 3.85641 3.53265 8.21814
1174 2 6.33825 3.76105 7.49194
696 2 4.68927 5.7831 11.3647
40 2 5.54976 4.68028 9.93607
1120 3 4.97614 3.59947 7.04956
911 3 5.00987 4.05519 11.0483
1070 2 3.55335 4.64016 9.28992
705 3 3.10734 5.10875 7.80793
958 2 5.4729 6.97204 8.25438
1644 2 6.42556 5.42628 12.3917
1447 2 3.90901 6.71498 7.63275
1897 3 9.57105 6.59344 7.08781
151 2 9.52459 3.32555 7.79403
1672 2 6.96181 3.89192 11.0261
1492 2 8.37218 2.81337 10.6395
934 3 9.81831 2.78134 10.6869
993 2 6.98192 4.16497 9.06769
185 2 26.3098 11.7966 14.5865
1183 1 9.87663 4.92181 9.80239
839 2 11.5356 5.81377 7.55132
1792 3 10.8588 6.27535 8.92456
710 2 7.34941 6.1646 10.8287
1116 2 7.95016 3.55849 7.89748
49 2 11.0624 3.08972 9.49712
2033 1 10.8155 7.15045 11.2916
900 1 11.8582 3.42274 7.39693
1307 1 14.7154 3.00889 8.51289
1532 3 14.0849 3.50272 10.4526
724 2 15.4355 5.4031 7.54943
1355 1 14.0996 5.95521 10.1052
1287 3 13.9102 4.97297 8.12676
1162 2 12.9108 3.37874 9.73426
1038 3 16.2008 2.64077 7.28871
1494 1 13.3596 6.85245 6.9468
1737 2 11.58 4.25614 11.4691
556 3 19.2765 2.38093 8.78201
170 3 20.7607 4.24567 7.68014
271 3 19.3456 2.96777 10.1657
1689 1 27.3489 11.9777 12.5996
545 2 16.5366 6.50965 9.74734
89 2 17.7215 2.69892 10.836
1690 2 17.3414 5.79835 11.296
429 2 16.4546 6.67414 7.02208
547 1 22.109 2.14647 9.10202
1293 3 23.4495 2.78783 7.66555
610 2 20.5964 5.08594 8.89155
1462 3 24.3071 3.69875 8.14885
998 2 24.9548 3.81534 9.67004
1484 1 21.5812 6.72137 10.8306
508 3 20.855 6.66523 8.7463
16 2 21.2157 4.16259 10.3163
867 3 26.0133 6.2298 7.12967
1909 3 26.2052 3.86591 10.7872
1956 3 28.6297 5.58478 9.06088
1429 1 29.0501 4.10362 10.4432
780 3 26.791 2.94767 11.5722
175 1 29.2187 3.81614 7.30286
1440 1 26.8892 5.1071 8.99901
294 2 28.8953 6.69757 7.78459
434 2 26.8794 5.58787 11.2766
1044 2 6.77947 6.90594 9.14426
874 1 3.64869 8.4672 9.09641
864 3 3.53955 10.2219 11.0956
1104 2 5.99267 11.1989 9.05395
1757 3 5.77015 9.72182 9.03974
807 3 3.13674 7.89156 6.83774
427 2 5.53975 8.81613 10.2493
1149 1 7.31233 10.4298 11.4983
1105 2 3.45158 10.757 8.25225
240 2 2.71821 9.16939 11.1682
234 2 5.07835 7.51687 11.6218
520 2 7.14485 11.3693 6.81506
1800 2 8.61347 7.44125 8.01791
1351 1 7.65654 9.36235 8.25999
1491 3 10.4632 9.0399 7.07498
967 2 10.0536 8.71663 8.62452
1497 3 8.54475 10.1061 9.96691
609 2 8.3346 7.29817 9.99103
1772 2 9.46905 9.20139 10.1921
317 2 12.3213 7.05536 9.1021
825 3 13.5136 8.08765 9.23928
364 1 14.5307 9.05503 10.7211
938 2 12.7606 7.63918 10.6533
1914 3 14.6303 10.9303 10.1694
908 3 15.7866 7.43569 10.8377
2006 2 16.0747 11.038 10.7775
813 1 19.0657 6.68454 9.73777
361 2 17.1131 8.45461 7.12147
544 2 17.4366 6.93518 8.24903
190 3 16.8456 8.12418 11.5634
302 3 19.2892 10.1373 8.40846
1084 1 17.5392 9.4307 9.70747
709 2 17.7375 11.1627 11.2812
1615 2 18.8591 8.45322 8.24774
1115 2 21.0442 9.89437 7.14781
1131 2 20.4879 8.11405 7.43689
899 3 20.4728 11.0006 8.56143
682 1 22.6661 7.6498 8.06437
1301 3 23.5674 7.00204 10.2891
535 3 25.4872 8.60153 8.94904
333 1 20.969 9.18996 10.1108
1542 3 22.8782 8.408 10.0306
1024 1 23.7106 10.235 10.4543
1475 3 25.1681 7.60853 10.1063
1118 2 21.8868 11.5552 9.28536
983 3 21.8157 10.9014 10.6999
887 2 25.3556 9.18251 7.49594
102 2 26.0916 6.95686 10.935
1053 1 28.4267 7.10036 9.93795
381 1 2.41284 11.5879 9.86814
580 3 27.9515 8.72648 8.30985
1651 2 26.8187 9.39681 9.2283
442 2 28.4286 10.1726 9.16485
1543 2 27.1643 11.2165 9.37617
1519 1 29.7071 9.81502 6.93928
758 3 29.9087 8.16068 10.8351
616 2 29.1888 8.87128 9.29136
1365 2 26.4082 11.0814 10.8275
572 2 25.2418 10.7232 8.89965
1390 2 4.95356 11.8088 7.88411
512 2 6.91899 13.2939 7.63396
108 2 5.14656 13.5931 7.56884
602 2 2.73593 12.2605 7.45313
215 2 5.69586 15.4601 8.57357
1135 1 4.13996 13.9589 9.52362
1257 2 6.12935 12.4675 10.657
178 2 3.46548 15.6421 10.8208
411 2 3.96101 14.9999 7.14076
618 2 4.67543 11.5207 10.897
1348 1 7.86799 12.214 9.26461
159 2 7.19036 15.1929 9.23086
1513 3 8.04982 12.6316 6.79403
475 3 10.0104 13.1612 8.99964
1249 2 8.55723 15.0861 11.6364
76 1 8.97649 14.3266 7.47244
571 3 8.70689 13.5998 11.3618
27 2 10.0334 12.7902 10.4448
670 2 11.474 13.507 8.1817
166 2 7.30088 14.0092 10.4988
1210 3 12.4094 12.1553 7.75357
1719 2 14.0671 11.2109 11.4523
1452 1 12.3376 12.6577 9.79755
1802 3 12.0417 14.4184 11.4645
133 1 12.8731 15.2234 7.32812
880 2 14.8991 15.1879 8.65007
431 1 15.4245 12.8034 9.53093
238 2 15.7129 13.6527 7.66588
498 3 15.6748 14.5277 11.339
212 3 14.9103 15.7887 11.2522
1931 1 18.1096 15.5586 6.90627
1635 2 17.9516 12.7992 9.61742
2014 1 20.0821 11.7068 11.0433
820 3 16.9569 12.9208 8.3938
1271 2 19.7248 13.7176 7.33608
420 2 18.0761 12.9285 7.41863
1922 2 18.9274 13.9427 10.4064
1089 2 19.5679 12.3737 8.23189
844 2 17.0406 14.2939 10.2083
1449 2 20.0561 15.2635 10.5864
802 2 20.27 15.3293 8.21414
2015 2 21.5668 15.9277 10.4945
197 2 23.3109 15.3151 7.84342
1268 2 22.9055 12.0955 7.48087
949 2 24.0926 13.7377 7.30307
707 1 20.9305 13.774 9.30481
721 2 23.1993 13.1222 8.88141
401 2 24.9053 12.2045 8.35244
689 2 25.1831 13.0328 11.5108
239 2 24.356 13.2397 10.1194
653 3 24.0818 14.7037 9.64084
951 2 22.7161 15.5546 9.48035
542 2 28.2054 15.7667 11.6702
1200 1 26.6967 15.5964 6.84893
2 2 30.0806 15.3422 12.3336
415 2 29.6272 13.6284 7.73203
999 1 27.6516 12.2178 7.30382
1410 2 29.1521 13.3987 9.05835
388 3 28.5591 14.6308 7.33678
1741 1 25.9161 15.2376 10.3486
389 1 28.8212 15.8186 9.24504
1751 2 7.37498 4.23424 12.7829
154 2 6.85796 3.06527 13.8267
559 2 3.9867 2.72923 13.2078
708 1 6.09148 4.39491 15.0923
123 3 4.02999 3.61305 15.2545
183 2 3.55585 6.37374 13.6478
632 2 6.40213 6.67638 13.8909
1236 2 4.05916 4.12968 12.1511
1740 1 2.13386 4.34003 14.0026
621 3 2.65753 6.45893 14.8184
1056 1 2.3794 6.4217 11.4361
879 3 8.06242 4.36618 15.3412
128 2 7.58939 2.5546 12.1751
2007 1 9.11911 6.07641 14.5962
1556 3 8.83135 6.22352 11.349
941 1 9.56119 2.56666 12.6551
2013 3 9.22251 3.9614 14.4854
829 1 15.54 5.38095 15.3434
337 3 12.771 5.01796 13.9337
422 2 14.9215 3.09918 14.163
743 3 12.0896 4.45888 12.7822
1626 3 14.9668 6.7162 13.2757
1842 1 14.3187 3.70781 12.2911
683 2 15.622 6.28092 12.0475
1889 2 13.4315 6.63881 13.919
876 3 18.7549 2.69462 15.153
1849 3 19.4117 2.52373 12.5067
1468 3 16.6371 3.38496 11.6956
486 3 20.5772 5.12001 15.8716
1583 2 16.1258 4.8185 11.313
1819 2 19.925 3.43861 11.4223
126 1 17.5174 3.55894 13.7877
1669 3 17.7545 5.35072 15.051
1798 2 20.2182 3.00777 15.2566
1619 2 20.8208 5.43347 12.8348
1045 2 18.9833 4.75848 15.6897
80 2 25.0542 4.3816 14.7614
1488 1 21.5267 3.28058 13.556
569 1 25.001 5.07203 12.5842
387 2 21.7318 4.42356 11.7855
58 2 22.3037 5.10837 13.4082
1217 2 21.9905 5.07355 15.3446
886 2 23.4464 4.71535 14.5279
144 2 24.4433 5.83458 15.2329
1907 2 25.5513 2.73832 15.5232
1420 3 26.4114 2.70669 12.7556
1953 2 26.0017 3.32607 14.0393
55 2 26.6196 6.10335 13.9209
1701 3 28.8285 5.70544 12.3758
1227 1 28.9065 6.86769 15.6674
209 2 26.598 4.81228 15.247
2031 2 27.4623 5.22385 12.9552
870 3 5.7813 8.94092 12.1453
1559 3 6.92531 16.1142 3.03017
2048 3 6.2427 6.94659 15.3553
1239 2 5.04918 8.17204 13.41
1062 2 5.24093 6.42097 12.9508
328 3 4.52769 10.6321 14.8008
1647 2 5.30714 9.3977 14.2701
1998 1 4.10677 7.6114 15.9383
985 3 10.1892 7.59914 15.5772
437 1 7.44686 8.87896 14.5657
1349 2 11.6324 8.12209 14.8274
1296 3 9.03719 7.67326 12.539
1538 2 9.13132 9.16146 13.0465
1198 3 9.73759 8.66583 11.6992
1281 3 8.8261 10.2027 14.0785
1032 2 10.1053 10.8624 14.6219
455 2 9.99316 10.5016 16.2123
141 3 15.3798 7.53904 16.2439
344 2 13.1089 8.90568 15.2407
1061 2 14.2573 9.20504 13.4735
346 2 12.7229 8.61114 12.2847
1847 2 15.044 7.81948 14.5497
594 3 13.58 10.1648 12.3361
1563 3 12.6359 8.20715 13.8514
1856 3 15.4896 9.39801 14.1818
1106 1 12.2998 10.384 14.1859
1472 2 17.4271 6.83696 15.7511
191 3 17.5056 10.8056 15.0562
1203 3 18.4849 6.8647 11.7013
532 1 17.231 7.27238 13.7464
749 1 19.8684 7.74252 13.0344
997 2 18.8069 11.1865 12.7037
638 1 16.9159 10.3035 12.9969
1939 3 18.6575 8.44808 14.5512
307 2 19.9204 8.32691 15.4185
668 1 19.869 10.5995 14.7556
1732 1 16.7219 9.24634 16.0356
1438 2 21.7104 11.385 12.3853
37 2 23.2592 8.10619 11.645
1915 3 21.6671 8.3909 12.1577
1086 2 21.7008 9.34209 13.444
1201 3 24.3989 7.47126 12.8105
198 1 23.1271 7.14494 14.0733
45 3 21.288 8.92809 15.0216
1970 3 22.6071 9.3093 14.982
1867 2 24.0077 10.5507 12.7158
1273 2 22.9587 11.2996 15.0963
2041 2 24.841 8.82689 12.4533
1385 1 28.0964 9.22706 11.6109
478 3 28.9639 10.7722 13.2242
461 3 27.0248 7.19247 14.4558
1361 2 2.51833 9.54565 15.4856
2022 2 29.607 9.80428 13.9767
1894 3 27.243 8.49063 14.8369
1112 2 26.819 9.71377 13.3011
1517 2 25.4833 10.708 13.7058
2032 3 5.10714 12.4154 12.0269
1215 3 4.77979 12.09 14.7993
916 2 5.28804 15.9217 14.2574
918 1 3.85671 14.1036 12.7421
664 3 5.07609 12.7268 13.5756
1975 1 6.7531 13.0096 15.3242
192 3 3.1769 14.4639 14.8216
1913 3 4.19502 15.0805 14.6075
1659 2 8.37075 15.8622 13.0404
222 2 8.82944 12.0282 15.1426
1241 3 10.5775 11.9661 15.542
1216 3 8.38158 14.3494 13.8963
1927 1 10.169 14.2171 12.8277
1436 3 8.8421 13.2325 14.3955
489 2 11.6813 15.825 11.7514
1548 2 12.3537 13.2406 12.5214
1957 2 12.8444 11.7195 12.4244
1396 1 12.1015 15.2527 15.0308
319 1 13.4637 15.2298 12.8925
101 1 15.3208 11.893 14.9767
1861 2 12.2299 12.3846 15.4931
1972 3 13.2524 13.2314 14.0368
377 2 16.7647 15.5036 12.364
1586 2 20.0964 14.7655 15.3187
863 3 20.0836 14.8469 12.3542
57 3 16.4417 13.2029 13.79
968 3 20.1605 12.0361 13.0378
969 3 20.564 12.9876 15.4716
746 2 17.9565 15.7338 13.329
1412 2 19.7411 13.0863 14.0722
853 1 18.1536 13.3292 12.3067
1341 2 19.4788 14.7751 13.6722
1356 1 17.4563 13.8686 15.5201
1725 2 22.5164 14.3084 15.15
1836 2 23.6551 12.4981 15.9257
1364 2 22.1092 12.6215 15.2977
1378 3 21.5067 15.5274 15.4986
5 2 25.2413 11.5012 12.0514
1221 2 22.947 11.5444 13.431
1013 2 26.1884 12.2992 16.1591
1991 3 24.3487 15.2398 12.7304
1080 1 24.5518 12.6156 13.7635
232 2 24.705 13.6788 15.85
1419 2 28.5335 15.2643 13.1763
1111 2 27.2792 14.9381 14.7586
703 2 29.3645 12.7713 10.9545
604 2 27.1907 14.2148 12.3283
256 1 11.8411 5.07603 15.7327
1777 1 24.2941 9.48788 16.1175
180 2 13.9366 16.1116 16.2155
1199 3 22.1283 4.76974 2.3562
1843 2 11.733 7.85688 2.1494
669 2 21.9818 8.72176 2.35025
1148 2 2.31687 11.6566 2.33781
87 1 4.23813 15.7559 2.05407
196 2 3.72232 13.5825 2.40865
1094 2 4.281 11.1707 2.25527
1974 2 5.7046 3.59351 18.5309
72 3 5.76792 4.47918 17.281
847 3 4.99435 2.9714 19.7105
1030 3 4.63631 5.03084 17.7777
678 2 4.4688 6.55264 18.1991
1978 2 3.99396 3.30421 20.6813
277 1 2.41153 4.49303 16.2896
1042 1 4.05052 2.44899 17.164
300 2 2.78619 6.19278 20.9004
1137 3 9.97374 5.30404 16.8721
1442 2 9.26094 3.03344 19.3047
1498 3 10.955 5.79881 17.8243
1022 1 7.93024 4.96526 17.3806
1536 3 8.94283 4.46688 19.8698
1057 1 10.9429 6.01505 19.9012
936 2 7.93907 6.34853 19.2561
1049 1 11.1743 3.38275 18.6829
1994 1 7.0999 4.00611 20.6423
862 1 9.82571 2.97056 16.5432
1919 3 13.2136 4.47542 19.0958
984 3 16.1657 5.78787 18.1871
1580 3 13.9889 5.04172 16.4465
1152 3 13.3582 3.75964 16.204
1657 2 13.7069 3.40939 17.8571
110 2 13.0336 6.03427 18.0417
1178 2 15.0071 5.13517 17.5651
56 1 13.6385 6.12536 20.1786
391 2 15.9588 2.49076 20.1595
1081 1 13.1166 3.18871 20.8492
956 2 9.31611 16.23 29.7885
1768 2 16.0577 6.06459 19.7208
2001 1 16.1848 3.21657 18.2041
1336 2 17.5798 6.40352 18.1169
1796 2 18.3769 4.76796 17.4068
69 2 19.4913 4.51715 18.7015
538 1 18.7907 2.23385 17.3227
885 3 20.7052 5.16576 19.2326
509 2 25.1896 4.33574 18.2602
2042 1 21.6651 3.79917 17.5244
1610 2 22.5227 3.32952 19.3146
1090 2 20.7006 3.43619 19.6684
1851 2 23.8193 2.58361 19.697
385 2 24.5215 6.07789 18.7436
1879 3 24.1961 4.27972 19.7622
265 2 24.162 5.63209 20.634
78 2 22.2336 6.20203 18.8195
1904 2 29.4538 14.6499 30.5185
432 1 29.3076 2.00943 18.4834
1276 1 26.7478 6.08689 19.0888
1342 3 28.4276 4.39145 16.8748
39 3 26.5947 4.16823 18.3335
1383 3 29.1655 4.59617 18.1552
1761 2 26.7542 4.0496 16.9171
1141 1 26.0594 3.31657 20.3033
273 2 6.06302 11.3829 16.6559
994 2 3.66571 7.78981 18.3782
1125 2 3.94329 9.26747 17.7017
614 1 2.49765 10.8626 18.7316
1557 2 3.96729 9.21477 19.3511
1100 2 6.38954 7.19429 16.7891
1525 1 5.86671 10.7417 18.9754
1790 2 2.84888 9.98719 20.7606
1234 3 2.1643 7.4953 20.9416
1430 2 7.12654 9.4845 20.8622
1240 3 6.80672 10.0436 16.6098
1237 3 7.37093 9.33757 19.3728
1683 1 9.92343 7.53879 17.4107
1282 2 9.78514 10.2756 17.6768
873 3 7.32331 8.54817 16.6828
1368 2 8.01918 8.82226 18.1153
1226 2 8.24332 11.02 20.2483
1389 2 9.35782 7.43588 19.8676
533 2 10.2255 10.925 19.2569
1916 2 7.69153 11.0444 15.9724
770 3 10.2843 8.00608 20.8078
972 1 12.0798 9.13718 20.6231
1304 1 14.9376 8.07225 18.3448
140 3 15.6223 8.30133 20.5094
1562 3 12.8435 7.62435 17.6856
553 2 11.8865 8.74003 18.3474
1971 2 13.2774 10.1349 18.7151
1144 2 14.3485 8.80526 20.2226
469 2 13.2675 11.388 17.609
596 2 13.9401 8.29559 16.3433
1801 2 11.4129 10.3906 17.868
1581 1 14.4816 10.9588 21.2981
1693 2 18.0988 7.94033 18.319
1874 1 17.7816 8.05796 20.7456
1968 2 19.9821 9.1314 19.0927
400 2 18.9242 7.63459 16.7564
548 2 18.393 10.6921 18.0021
445 2 16.9278 11.5734 15.9823
112 2 17.2006 9.38242 18.1589
1779 1 15.7765 11.9827 19.1576
11 3 18.8913 9.88535 19.2206
642 2 20.1536 10.2245 17.9777
940 1 20.9712 6.60792 20.4034
176 2 19.7577 11.8123 20.2669
1291 3 22.8782 6.95093 20.0685
1508 1 21.298 7.08095 17.2864
1712 2 24.4594 7.59378 19.2742
815 2 24.0643 9.2438 19.4735
1422 2 21.624 9.54588 18.7039
351 2 23.1129 9.21691 17.9468
1406 2 23.8215 7.58968 17.7547
446 1 22.1069 11.3035 17.3719
1910 2 23.6046 10.7851 19.2027
406 3 25.9351 2.47186 24.2569
1000 3 23.8721 7.19486 16.1076
1388 3 2.18527 7.23127 17.1608
1136 1 25.6073 6.97337 16.6618
253 1 29.5763 6.71577 18.9584
573 2 26.0131 8.52464 19.2454
1493 3 26.895 8.08032 18.1856
1176 2 27.897 7.66587 17.3291
1984 3 29.2575 10.3282 16.9364
1603 2 26.6411 11.466 18.508
505 1 27.1702 9.87132 16.2299
892 2 29.2889 8.5607 17.2843
1622 2 3.64348 13.1681 18.9165
163 1 4.7794 14.7443 16.5327
153 2 5.20485 13.6368 18.9452
1982 3 4.77961 15.0051 19.4056
425 2 5.93306 13.0204 17.3389
541 2 6.13287 15.4376 17.9333
761 3 2.8296 15.1362 16.6753
1369 2 2.55024 14.7395 18.8112
752 3 3.75005 15.9561 19.2824
1071 1 30.0772 13.3131 16.3551
1303 2 6.84666 15.5607 16.3738
1395 2 7.70966 12.6399 20.5884
933 3 10.1957 12.3497 19.5869
402 1 8.09806 13.0078 18.4957
1337 3 6.83454 14.2366 17.3628
1628 1 11.7306 13.5363 18.319
763 3 13.4265 11.8119 16.2575
2005 2 14.0239 13.5523 16.875
1721 2 13.4071 15.4092 17.5597
293 2 11.974 15.7788 18.8097
1431 3 16.3431 12.532 16.9447
645 2 27.2986 13.6574 28.6092
751 1 28.3327 2.45166 15.8359
407 3 16.5695 12.7388 20.9533
960 2 17.0257 13.8051 19.8896
1073 3 16.421 13.8812 17.3059
1893 1 20.0071 13.2085 17.9156
652 2 16.0521 15.1051 19.6939
1407 3 18.8528 14.9375 18.015
473 2 18.3305 14.0045 19.0532
848 3 19.9303 15.652 18.038
1593 2 20.1962 13.484 19.9714
1869 2 17.1237 15.2277 17.5266
1487 1 25.8469 15.0039 26.6668
274 3 22.3201 12.8606 20.7284
1765 2 21.3425 15.0338 17.0947
440 3 23.0837 12.0421 19.8688
413 3 21.6874 13.8097 19.6723
1528 2 22.4362 13.9089 18.4932
704 2 23.5638 13.7024 17.2231
975 2 25.3424 12.3731 18.2633
1569 2 24.5524 13.0521 19.5037
1305 1 22.8599 15.0039 20.8755
826 2 25.5511 10.9288 17.3201
1146 2 27.8822 11.5718 19.7859
603 3 2.16964 13.3375 18.6903
134 2 27.9025 13.8295 19.8772
1138 3 28.7343 13.0782 18.9194
1841 3 26.8893 14.8725 19.2221
1821 2 28.5265 11.2331 18.0496
454 1 26.4996 15.1339 17.3029
1258 2 25.4781 15.4537 19.6426
748 2 25.8748 14.9208 21.387
1917 2 29.629 2.94415 23.9468
1256 3 3.30737 4.81009 20.7682
1213 1 3.3013 4.43712 24.2505
1471 1 4.94953 3.81936 22.4843
1594 2 2.41767 3.71498 22.1904
332 3 4.76252 5.5413 22.9912
959 3 6.12711 5.75283 22.9343
312 2 5.99847 4.49264 25.5439
1052 1 5.54267 7.26977 25.1317
1558 1 8.14334 3.06051 24.9152
289 1 8.05962 5.41323 23.2933
801 2 10.6927 5.26344 24.916
444 3 10.0283 6.63651 24.7813
837 2 7.86668 6.57076 20.9017
1261 2 9.02818 5.27038 21.3615
2029 3 10.3972 5.61522 22.2161
1629 3 10.2313 3.72319 25.3208
987 1 10.0951 3.10675 21.2777
1665 2 10.4371 6.48959 23.4465
744 2 7.80882 3.14443 22.5615
225 2 14.8883 2.50068 23.4056
896 2 27.8403 14.8394 27.3474
1976 2 11.6608 5.21414 21.717
1742 2 14.0029 5.13116 22.3796
1205 3 15.5167 2.91485 21.5175
2002 1 11.7709 2.64662 24.5284
898 3 14.4618 6.44642 22.4243
33 2 15.6555 6.09473 21.4623
41 3 15.7879 3.57572 22.9631
1829 1 16.3514 5.86372 24.3314
686 2 12.8211 3.93816 22.971
1443 2 20.1707 2.08188 23.9435
1888 2 17.2308 4.55895 22.4529
412 3 19.2443 4.93863 22.0063
121 3 18.543 3.99249 22.8289
1193 3 18.6451 2.50707 23.2006
1246 2 19.1578 6.34863 22.0919
1884 1 20.0265 5.80955 24.0021
649 3 16.999 6.28159 22.3066
211 2 21.3937 3.33866 23.1278
1527 3 21.8514 4.8117 23.0944
1723 1 23.2645 4.36269 25.1557
1122 2 21.6232 6.69613 22.4446
224 2 24.8342 6.98013 21.73
1607 3 24.4654 6.39854 23.0078
1266 2 22.1489 2.60125 24.1982
643 2 25.031 5.98788 25.3098
782 3 26.8073 5.13192 21.2391
1758 1 28.701 4.62859 20.3982
1006 2 27.4131 5.45763 22.513
584 2 29.111 4.77941 22.7225
795 1 25.566 4.4175 23.147
250 2 28.7773 5.29285 24.6556
2047 2 29.2661 3.90301 25.3566
1003 2 27.6783 6.57401 21.4724
1286 1 27.8632 2.23321 25.0588
410 2 5.13209 9.08465 20.6699
372 2 6.71015 8.48693 21.9881
840 3 4.09534 6.86491 22.9434
726 2 2.76952 7.21206 22.4951
1427 2 4.77596 8.39656 22.3361
1699 1 3.37801 9.04664 24.4273
1935 2 6.16842 8.70717 23.547
777 1 5.79617 10.412 22.3945
1357 2 4.34095 11.0159 24.2071
1588 2 4.23781 10.8347 20.441
1923 3 6.831 6.725 22.1419
1656 1 9.30173 8.32119 22.3455
1561 2 8.27698 10.0367 24.7072
1218 3 6.97539 9.0925 24.7419
1824 2 9.64833 10.5043 25.2946
2017 2 11.1105 7.03679 22.0518
1180 2 10.032 10.1244 22.0388
1918 2 11.3257 10.0388 25.8308
1014 2 8.32968 10.4951 21.6399
725 2 12.7026 10.5756 22.8466
1730 1 13.2969 7.95886 24.23
1154 3 11.3279 10.5471 22.2876
231 2 14.3832 9.13173 25.5821
1694 2 13.0521 10.2823 24.623
435 2 16.3816 7.80708 22.498
974 3 16.7648 11.4197 21.2121
1017 1 17.0437 8.93086 25.1324
1495 3 17.0254 9.00187 23.0247
1857 1 19.7007 9.267 22.894
1208 2 21.0576 11.2622 22.9139
1530 2 17.5274 10.3498 21.9581
787 3 20.0542 11.1572 21.6062
1238 3 18.6613 11.2645 22.0056
1169 3 18.3384 6.83118 24.7355
1297 3 19.4188 7.86416 24.5241
1335 2 23.194 8.42837 20.6905
179 1 25.2828 10.5917 21.1392
891 3 24.046 6.99348 24.4895
772 3 21.7597 9.43889 23.1533
1294 2 24.7665 8.39655 20.6634
334 1 22.1548 10.1027 21.1055
369 3 21.4154 8.19768 22.6169
845 3 25.059 10.1674 24.249
543 2 22.4268 11.7752 23.8705
201 1 23.6884 8.29021 23.0338
1387 3 24.1054 11.1456 22.9726
1870 2 23.0177 11.3837 25.3861
1868 2 27.5543 10.5743 21.0226
207 2 29.351 10.4552 20.7042
481 2 25.947 9.58495 23.0951
740 3 29.9169 7.74956 23.4212
1986 2 29.1176 10.7774 23.2648
1277 2 28.7597 7.80506 24.7973
1668 2 29.3554 9.09969 23.7966
622 1 28.5045 8.58424 21.708
229 1 26.96 7.29796 23.4069
106 3 27.8921 6.74906 25.3819
1818 3 27.7379 9.92212 23.2468
1359 2 29.4337 9.48305 25.4648
195 1 27.0136 10.5437 25.4501
132 1 5.79084 13.5968 20.8041
457 2 4.31434 12.2043 21.7779
1161 3 3.65384 12.1373 23.2048
327 3 3.95878 14.2224 21.8976
1660 1 4.75471 14.9741 23.6748
1009 2 2.79334 15.2042 21.7648
1930 2 5.10269 12.725 23.4951
451 2 5.00652 13.7492 25.6947
631 3 3.27889 14.8959 24.7492
1920 2 6.33937 13.5468 24.9329
1625 1 11.2964 15.5415 20.7115
487 3 9.98111 12.8846 20.7052
1172 3 7.33855 14.1648 22.0821
326 2 7.358 14.8461 23.802
2008 2 7.29105 12.4833 22.3254
1653 1 9.6688 14.7977 23.9096
1512 1 8.23689 16.1616 21.4103
1632 2 10.1626 13.5585 21.8356
29 2 26.599 12.2691 27.772
347 1 11.3281 11.6849 24.0634
1320 2 14.4955 14.9479 23.45
1760 2 14.45 12.2308 24.7364
1400 2 13.3118 12.0422 22.9831
693 1 14.9312 14.0108 21.308
612 3 12.894 14.5231 21.527
536 2 13.0451 12.8333 21.6573
1325 1 12.3812 14.6644 25.0227
1733 2 11.4783 13.4749 22.9747
1788 2 13.3511 15.4996 22.3478
258 1 17.8296 15.977 21.7139
439 3 18.5205 12.7162 22.5838
1685 1 19.4726 14.6911 24.1209
1820 2 17.684 13.7765 22.5328
1848 2 20.0287 14.626 21.3341
1504 2 17.7417 14.3573 25.3751
465 2 17.2298 15.2663 23.6547
821 2 16.0786 14.6459 22.8215
768 2 20.4301 12.5518 25.9128
343 1 25.4714 15.7455 23.3166
1278 2 21.3309 15.3302 22.474
286 2 23.7822 15.0697 24.3753
759 2 24.3879 12.6038 22.941
2030 3 24.9018 13.818 20.9075
889 2 23.246 16.0504 22.8665
1160 2 24.9819 13.6956 24.2772
1822 3 25.3349 13.6836 22.3734
1274 2 28.8343 14.6667 25.5595
1965 2 29.9108 14.5447 24.2927
1941 3 28.479 13.757 21.3631
1510 2 27.5308 14.5615 22.8555
781 1 29.7674 12.5261 22.3284
797 2 28.3269 12.5712 23.8505
1987 3 26.7196 16.1112 21.7063
458 2 26.6261 13.4842 24.8297
1124 2 29.2078 14.8024 22.464
281 2 4.36117 3.95942 25.8503
1091 1 3.47196 5.57449 27.1654
150 2 3.59806 2.38491 28.7908
204 1 2.11798 2.91762 26.9652
1179 1 5.28824 4.36364 29.3232
1326 3 6.46403 2.16318 28.0596
164 2 5.68011 4.59359 27.2934
1591 2 6.85275 5.54568 28.3359
995 1 9.36406 5.30576 26.5423
233 3 7.32689 4.58163 26.5557
1425 2 10.638 4.43178 28.3229
673 2 6.80919 3.58608 28.0573
808 3 8.53451 6.02439 29.1382
868 3 9.41492 5.16363 28.594
1924 2 12.2374 4.14319 27.2481
171 2 14.0733 2.86263 29.1864
963 2 11.1687 4.37014 26.1769
1967 3 13.1614 3.41772 27.9586
1078 3 12.4825 4.24091 28.9146
1233 3 13.702 7.07451 28.9584
247 2 15.1088 7.25661 29.5901
1133 1 13.723 5.32072 26.5967
589 2 16.8645 5.04053 26.5157
248 2 16.7713 6.54742 29.0023
393 2 19.789 2.23951 28.1345
1228 1 16.974 2.33415 29.809
380 2 17.2038 2.44959 26.9191
1309 3 17.7587 5.62797 25.4354
1067 3 16.9838 3.81145 27.0809
1623 1 18.2259 5.94426 27.5793
1735 2 20.8111 4.52578 27.0718
981 3 20.4298 5.28436 25.9778
1384 2 21.2126 5.04916 29.1347
354 2 19.4343 4.91258 29.4162
1318 2 29.6653 15.7003 29.065
1123 2 23.1906 3.24812 26.8757
637 2 21.3539 2.95976 27.4375
989 1 23.9146 5.57289 30.0022
1938 3 23.7727 2.1615 25.9442
2025 2 25.8862 5.10557 26.0239
284 2 20.5518 7.25351 25.4935
268 2 22.5169 3.66282 28.2655
1184 2 23.9383 3.10041 29.133
342 2 25.2934 5.40597 27.5759
135 1 27.627 3.34658 29.5066
1394 2 28.4035 5.76124 28.7866
21 1 27.9089 5.30196 26.9415
1992 2 26.8634 3.10816 27.2876
1097 2 25.5187 3.78953 28.5463
753 2 3.24077 4.01057 28.7153
174 2 29.8837 4.608 28.2591
791 2 4.22986 10.8168 25.9851
173 3 4.17934 7.40098 26.8718
2027 1 6.24047 11.1644 25.0354
88 2 3.41501 6.83137 29.0713
943 1 5.78646 7.55686 29.1502
1284 2 4.81376 8.91062 27.0178
552 3 3.57141 9.56798 26.6513
9 2 6.22243 9.99185 27.1767
882 2 4.21111 9.53447 29.8222
322 2 8.70999 8.87202 25.805
2046 2 10.4341 11.5377 26.2991
1466 2 10.5549 7.24184 25.9943
1382 3 9.56755 8.10615 26.6958
1568 2 7.87794 11.0679 27.584
1612 2 7.21862 9.62919 28.7721
1008 2 8.60519 8.70692 27.7765
1196 2 9.4704 11.4414 27.7734
12 1 10.5028 9.57659 28.4001
1805 2 7.93608 7.68672 29.4548
4 2 8.7 11.1736 29.1139
1040 2 6.87106 9.72616 30.5084
1863 3 11.7901 8.04629 28.7735
857 2 28.0936 13.3054 25.6761
1026 2 11.6027 8.54243 26.1369
701 2 12.6354 7.38144 27.6661
1883 3 12.6087 7.25424 25.9481
588 1 13.0034 11.1965 26.7866
1573 3 13.7075 11.4946 29.1035
1634 1 14.0289 9.26308 29.134
1708 3 16.0603 9.74148 30.0042
488 2 15.3615 9.32527 27.0222
992 2 15.6862 10.5071 26.1132
1506 1 20.9449 10.3955 25.0066
629 2 17.2854 8.01209 28.4503
1375 2 16.3926 9.53322 28.6531
1985 2 17.1183 10.5878 27.133
1786 3 19.1435 7.97212 28.3036
1173 2 19.7759 9.09032 27.3341
639 3 18.7865 10.0062 26.8234
930 3 20.9092 10.0096 28.7578
690 1 18.6757 10.3291 29.5382