# LAMMPS data file written by OVITO Basic 3.7.11
2048 atoms
3 atom types
-0.0240718808 28.075551028 xlo xhi
-0.0240718808 28.075551028 ylo yhi
-0.0240718808 28.075551028 zlo zhi
 
Masses
 
            1   12.01100000             # C
            2   10.81000000             # B
            3   47.86700000             # Ti

Atoms  # atomic

162 2 0.111793 2.04452 4.40543
322 2 2.06018 2.11511 4.53047
609 2 3.36339 3.09033 0.678093
1728 2 12.4147 0.279671 13.0217
148 1 3.88946 3.03822 3.75621
150 2 4.45444 1.68647 1.89619
897 2 3.98936 0.0818506 1.81473
1785 2 26.8431 0.728912 0.700193
1717 2 2.11543 2.35852 1.86509
1483 2 1.86349 3.40756 3.55272
1898 3 7.09689 3.12668 2.10331
298 2 5.75929 2.77518 2.29659
281 2 6.93422 2.02173 3.79249
151 2 8.09657 0.70202 2.80973
1008 2 8.5103 1.74859 0.70944
1191 1 6.21868 0.487447 1.37126
730 1 5.46624 0.344908 4.12447
2047 2 7.90432 3.88233 0.0550452
46 1 8.91058 2.82203 2.4082
1425 2 11.3499 3.9152 0.185903
1663 2 10.0197 3.40963 4.33252
1476 2 11.8871 2.02289 2.35393
54 2 12.828 0.637409 2.93964
247 2 14.4318 4.02454 1.38307
357 2 13.6917 2.37953 3.16035
1193 3 11.8889 3.35084 1.51488
629 2 12.2669 4.74541 5.28971
94 2 12.8513 3.80845 2.71082
1490 1 10.2815 0.748187 3.36484
1524 1 15.1867 3.93873 3.49159
1925 1 17.6694 3.42149 1.2567
783 3 17.1612 0.65058 3.58557
1614 3 16.4382 0.925299 4.79918
1153 2 17.7649 1.06584 2.26337
58 2 18.2238 1.25036 0.892293
1015 1 14.644 0.0625172 4.05856
1932 2 15.1265 4.11431 -0.0309685
16 2 19.3768 0.250062 0.13004
190 3 19.5055 3.93176 2.163
198 1 18.8048 2.57013 3.94123
544 1 20.3666 2.15662 1.02819
1509 3 23.0466 3.95471 3.79108
500 3 20.1821 3.75422 3.30892
363 1 22.5799 3.16602 1.86834
482 2 23.4697 0.786971 1.80399
476 3 22.8072 1.60814 0.419803
832 2 21.0045 0.819721 3.69734
606 1 25.8906 0.608741 2.71582
1052 1 26.3027 3.02332 1.31324
1294 2 26.0648 5.16478 3.2912
1735 2 28.0872 3.41993 2.9657
637 2 24.759 1.99098 1.80487
1143 1 24.5614 2.7185 3.97507
224 2 26.6948 2.44598 3.67978
1786 3 24.0806 4.29271 0.62285
1590 2 11.7658 12.6837 0.0614214
1903 2 23.9201 2.92322 0.0843087
386 1 2.26373 5.15111 1.21572
443 2 2.28597 7.26824 2.93488
382 1 3.75401 8.64333 0.64043
361 2 2.15061 6.10857 3.90675
1142 1 0.367989 8.02242 4.05506
1578 2 3.66428 7.01526 1.83079
937 2 3.45372 6.38425 4.62109
1408 3 4.19318 6.60273 0.538143
1691 2 1.47847 9.48649 0.907317
346 1 11.8097 13.5243 9.56066
1048 1 6.79786 5.60699 2.64369
808 3 8.44399 7.2883 2.96342
1863 3 4.93003 6.54021 4.63217
501 2 7.38772 7.55442 1.76625
1755 3 8.44333 5.8906 3.32105
173 3 7.45883 5.28133 0.636477
635 2 9.55958 9.45526 1.18499
1636 2 4.72758 6.838 3.09066
552 3 10.5507 5.11949 0.810666
995 1 10.9513 5.40392 3.1988
276 3 10.926 8.67253 1.13826
577 2 9.21098 4.91954 4.62517
593 3 11.9601 7.12752 3.88567
347 1 13.4543 6.22692 4.13484
1946 2 9.71145 10.4071 3.9042
693 1 12.9396 5.43456 1.07281
1653 1 9.02795 6.62856 0.74091
2004 2 10.8657 0.322322 11.2111
929 2 15.6416 5.367 1.44012
1460 3 17.0972 5.06696 2.15841
444 3 14.734 6.58598 0.427122
248 2 14.2817 8.13407 1.28966
1936 2 14.6079 7.23495 2.56004
1199 3 15.9651 7.08004 3.47393
1078 3 17.1304 6.22225 3.16475
1084 1 19.1243 6.19424 1.49462
75 2 15.7745 8.34344 2.25552
997 2 17.9302 8.89317 3.48384
1767 2 19.4586 8.72027 1.13024
1461 3 19.1305 8.10665 2.82382
613 1 18.9776 5.56218 4.2647
1582 2 21.2851 7.04198 4.34761
109 2 22.7026 8.42011 3.89079
1938 3 21.4744 7.3883 2.4429
21 1 24.1581 5.9062 3.89976
1997 3 20.98 6.31325 2.94517
1687 2 22.7845 8.45406 2.09047
1301 3 22.163 8.95442 0.74716
1612 2 0.324531 5.09094 3.60984
1956 3 0.331578 4.68317 1.75943
1839 2 27.5168 5.54505 0.812895
349 3 24.9674 7.37291 5.17054
1699 1 24.9293 7.85466 2.33954
170 3 25.7125 8.20706 4.37684
1440 1 26.9282 7.6918 1.23722
200 2 24.6813 4.73993 2.09862
1234 3 25.9351 5.67537 1.92068
1041 2 26.4983 9.33106 3.82929
95 2 -0.206822 10.6509 0.285841
1989 2 1.68378 8.97411 2.6739
912 2 3.01801 10.4803 2.44072
299 1 2.64711 12.7078 2.89942
29 2 2.81041 10.7982 0.706113
1816 1 27.9816 10.8657 2.95339
7 2 0.924868 11.7087 1.30424
1885 3 4.05623 10.9213 3.29928
71 2 0.686652 13.2625 4.99661
563 2 2.13847 12.8542 0.176736
818 2 23.1922 9.40502 9.59332
1277 2 4.21862 13.8129 3.67761
1568 2 7.11103 9.46193 4.6859
945 2 5.43721 11.8164 3.33536
463 1 5.59735 9.18646 2.99828
1769 2 6.26692 12.2106 0.502123
631 3 6.42062 12.2001 2.07333
588 1 7.82525 11.4051 3.70327
1025 2 7.87059 12.3578 1.60576
1016 2 9.00093 13.3626 0.72102
1708 3 8.83736 10.6719 1.53116
1454 1 7.42574 9.68091 0.473029
942 3 11.685 11.2552 0.821154
753 2 11.9714 10.3946 1.81878
1924 2 11.6029 10.725 3.34737
1544 2 13.0253 12.7621 3.7146
1046 1 13.8819 12.3113 0.781486
15 2 12.8247 11.0427 4.36666
1308 3 13.9674 11.6006 2.82799
430 2 10.2656 13.9809 1.5535
754 2 9.50153 12.3236 1.89968
1273 2 27.734 12.3918 12.8619
1899 1 10.6959 12.2695 4.2269
801 2 13.9742 13.6762 2.80037
227 1 13.8326 9.27378 3.1533
868 3 15.8272 9.68029 2.9641
1669 3 17.0889 10.1521 3.23504
2026 1 15.7356 12.1091 3.42111
1573 3 15.0985 10.3997 0.260101
908 3 17.5069 13.3489 3.68614
619 2 22.033 13.8077 1.23385
1723 1 16.527 8.00789 0.151051
551 1 21.1147 9.72523 2.42484
733 3 20.368 11.6261 1.23894
267 2 19.312 11.2249 0.295875
1794 2 19.7298 12.8676 1.91019
1136 1 24.6171 11.8374 13.537
174 2 23.8059 9.93886 3.04872
2022 2 22.4795 11.3384 1.47329
1977 3 22.5171 11.2813 3.0136
565 2 21.9811 12.713 3.47835
339 3 23.1331 12.6952 0.691179
1357 2 26.6225 12.8857 1.28429
747 2 26.0747 10.2273 2.44869
113 1 25.1095 12.4816 2.8018
916 2 27.1069 13.2346 4.19785
1949 2 26.3322 11.2131 0.887938
1528 2 23.3789 9.64748 13.9026
856 2 24.8805 13.3606 0.55758
1815 1 24.4085 10.7775 0.179615
1058 2 3.70375 2.16856 7.57584
474 3 2.65501 3.39487 7.32375
1120 3 4.14764 1.01839 8.41117
34 2 2.46728 0.214457 8.64098
1681 2 3.94622 3.53298 6.13545
1759 3 1.3536 0.796536 7.9838
909 3 0.599269 0.676532 6.92254
1166 1 0.654809 3.55793 8.22042
938 2 0.592669 0.932381 5.46918
204 1 5.90231 2.1683 7.67198
193 1 7.44013 3.69136 5.22955
497 3 5.65728 2.55981 4.46768
1432 3 4.67132 2.2268 5.25731
1038 3 8.25063 2.8615 8.01136
879 3 4.91931 4.36863 7.9327
663 3 8.04853 2.26959 6.85514
658 1 8.70191 0.602673 5.46259
979 2 12.1041 0.774253 6.40624
1307 1 12.4787 2.47607 4.911
1355 1 10.5601 2.99961 8.14073
1233 3 12.3115 0.158932 7.84105
1210 3 12.453 3.12019 8.27782
1284 2 10.422 1.12653 5.84789
1312 3 13.6623 0.675204 5.94871
1123 2 11.1633 3.77578 6.42576
621 3 26.1987 12.3324 12.2499
1631 1 13.7137 1.84487 7.66357
921 3 17.1611 1.2295 7.61158
1265 2 16.2812 1.61064 6.31848
1074 2 18.3212 1.72994 6.32463
1583 1 16.4502 3.23117 8.14943
1082 2 16.4576 0.405208 8.6387
189 2 15.6953 2.91231 5.43844
556 3 18.3923 4.1468 6.73967
769 2 14.2606 4.51857 5.6231
780 1 21.503 4.25626 5.00003
610 2 20.0288 0.530069 4.75991
1894 3 20.6374 3.16289 6.90891
1420 3 22.1132 3.03492 6.83862
2041 2 19.5735 3.56468 5.83572
886 2 25.4458 13.3084 11.5101
545 2 21.596 3.06668 8.20389
1330 2 26.7574 11.9603 10.8342
578 2 19.8145 3.16597 8.3863
1475 3 23.4642 3.16218 6.18709
99 2 22.7703 0.922496 9.25283
2001 1 22.4036 1.18032 5.4464
1469 1 26.704 2.34329 6.085
1854 3 25.5237 1.04232 5.49407
981 3 23.9736 4.47521 6.55339
1496 1 24.8165 0.835449 8.02354
392 2 26.5001 3.64452 8.51811
949 2 27.0287 2.21039 8.3122
1342 3 26.7018 1.00693 9.29115
1359 2 0.0412823 5.38002 5.43509
1781 1 2.15917 4.871 5.84839
1918 2 1.57241 5.76765 9.34809
172 2 4.03247 6.76112 7.25159
1634 1 2.52012 8.13968 7.96383
789 3 1.22591 6.16441 7.95986
1293 3 0.114087 5.89575 6.78094
1736 2 3.52917 6.5397 9.03546
580 3 1.56663 8.76561 9.4499
317 2 4.30108 8.99129 8.75662
1494 1 5.13918 5.30963 6.01269
1553 2 4.81999 7.91185 6.31254
1026 2 6.05282 8.8076 6.0499
175 1 6.8925 5.07584 8.43837
137 3 7.27516 5.56881 6.29857
44 1 7.76262 7.22803 5.37413
946 2 5.69804 7.89068 4.55265
40 2 8.77526 5.45539 6.22241
520 2 9.76918 8.56128 5.94709
1503 2 4.68766 5.19181 9.39288
1056 1 5.2469 7.52609 9.54177
2007 1 8.29297 8.36403 9.0324
1382 3 9.95578 7.98806 7.65362
1174 2 11.7255 7.58762 7.94901
306 2 9.93062 6.91265 6.49855
1654 1 11.669 8.38414 5.56265
513 2 12.8874 8.74845 8.73356
670 1 12.8094 4.9908 7.69174
1664 2 10.9816 5.47427 6.52971
1040 2 13.6097 7.30237 6.106
1957 2 14.3725 8.45996 7.16804
737 1 16.2044 7.31882 5.56588
1775 3 14.9147 5.67579 6.41052
1072 2 15.4796 9.55938 6.99046
1915 3 15.778 5.46882 7.38957
1858 1 17.0506 6.87461 8.419
1474 3 17.8559 8.64181 5.11174
1702 2 18.4979 7.08165 6.1151
1203 3 18.3484 5.73499 6.93559
662 3 15.279 5.11406 8.83348
594 3 14.2182 5.81748 9.38372
508 3 21.9854 8.66446 5.2724
1118 2 20.2068 6.42478 6.85382
1201 3 20.914 6.33023 5.51614
1115 2 22.2459 8.86713 6.67068
771 1 19.2931 9.38552 6.66387
1944 2 22.7117 7.99304 7.86986
1856 3 21.2907 7.33917 7.65722
1706 2 19.8943 7.98949 8.45689
461 3 23.4557 6.80479 8.70352
1092 2 25.1797 4.90029 7.33943
194 1 26.3893 7.33456 6.385
1684 1 23.1341 6.65114 6.46425
1173 2 26.7054 5.31582 7.00049
1754 1 25.4255 7.49676 9.2204
1585 2 27.4239 8.65178 8.22101
807 3 4.27617 13.8147 5.92607
2017 1 2.26878 10.0292 4.50969
1491 3 3.94006 10.7011 6.784
799 1 4.29018 12.7799 7.47986
600 2 2.48247 9.97701 6.93053
1121 1 1.74472 12.191 6.741
108 2 0.619161 9.20376 8.11386
1227 1 2.82567 11.104 9.48935
88 2 9.02381 9.30405 4.76821
773 2 5.41761 11.0528 7.22026
1985 2 6.74923 12.4704 5.01582
318 2 5.87974 13.9147 5.63332
1429 1 7.69503 10.3468 6.52653
560 2 6.35887 11.8395 8.32615
492 2 6.60637 12.4511 6.7478
255 1 8.58098 13.5836 6.09986
101 1 8.60504 11.6807 8.87255
1362 2 13.0191 9.85422 6.95783
1287 3 11.8471 10.4462 5.65561
1504 2 13.1144 11.4496 6.17564
365 2 10.2907 12.5394 7.26541
1871 1 11.0806 9.90361 7.68756
1655 2 12.1675 12.325 7.99044
112 2 13.7545 11.8036 8.01898
239 2 9.58589 13.825 8.17518
130 1 14.7611 13.2991 5.80819
960 2 14.6199 11.2618 6.47073
813 1 17.8595 11.0551 4.9822
124 3 15.3382 11.3565 4.97732
1958 2 18.1083 11.6717 7.64551
729 3 17.2772 13.4736 7.88626
155 2 14.4163 13.5216 8.39281
827 3 18.5288 13.3073 4.76988
1035 2 15.4186 10.734 8.12368
1399 2 17.7791 10.1722 7.90525
257 1 22.1453 10.7859 4.91495
721 2 19.7536 12.7754 5.51665
429 2 20.9385 11.9998 6.5193
1297 3 19.8068 11.0947 5.8607
133 1 22.3303 14.0342 5.67748
820 3 22.3256 12.1928 6.64253
930 3 23.5185 13.6152 4.13077
355 2 23.7445 12.5424 6.62025
419 2 26.4894 9.57462 8.97062
535 3 27.3212 9.9509 4.99427
1810 1 24.5628 9.94361 5.15868
1904 2 0.369029 10.4549 6.20481
796 1 27.1165 12.1784 8.07698
2025 2 26.0258 12.4578 5.03598
1867 2 24.4931 12.6326 5.42593
893 2 26.6113 10.7072 6.51938
1070 2 27.5087 12.2666 5.85702
420 2 25.0104 11.4147 7.25569
1112 2 0.161811 13.5544 6.65274
499 3 1.62407 2.63448 13.4367
1381 1 3.77033 2.34322 10.0459
1740 1 1.20334 4.51134 13.0851
1194 1 0.755245 0.986605 9.94088
903 3 4.99832 3.39938 13.3012
1398 2 4.33514 3.79314 12.0014
1619 2 1.21477 3.50338 10.204
702 2 27.8385 2.64455 11.4036
632 2 1.27144 1.03697 13.2501
33 2 0.278693 2.4814 13.2519
371 2 7.17242 2.75182 9.63772
1844 2 8.23358 0.0503863 9.74333
927 2 4.84211 3.9321 10.2937
310 2 8.54059 2.0436 13.3861
758 3 5.76081 0.802031 11.5517
1926 1 7.04793 2.75698 11.8303
235 2 5.94066 1.86141 10.2555
1178 2 8.9663 3.6131 13.3447
786 2 8.56349 0.288193 14.1552
1042 1 6.45047 0.069479 13.304
1792 3 9.14898 4.27627 10.6105
1298 2 7.81641 4.32936 10.23
1993 2 12.5867 0.638164 11.2109
296 2 9.97048 1.22518 13.561
928 2 9.72708 0.798866 10.0648
1157 1 10.3712 2.98553 11.3692
950 2 12.1625 4.23956 11.3379
1183 1 11.783 1.31061 9.60824
1878 2 13.0309 3.34126 12.6099
1246 2 12.3509 3.45315 9.82877
1739 2 12.0157 2.7553 13.7091
1861 2 13.9742 0.542056 10.1175
1462 3 27.6571 11.1002 10.1036
836 3 15.5712 1.25087 10.0804
126 1 14.3031 1.51368 12.0348
1367 1 17.4658 2.4108 11.2631
448 3 18.8694 3.0834 9.37488
110 2 17.8082 4.6827 9.60079
1732 1 14.6336 3.09353 9.88124
1587 2 14.9031 4.07658 13.2634
1241 3 15.8972 2.40486 13.3814
649 3 17.823 4.38405 11.234
1162 2 16.3952 3.90981 13.6834
394 2 16.8967 1.19762 13.3533
1902 2 19.2723 0.515208 11.51
1908 1 21.3126 0.472606 13.2382
176 2 19.9659 2.8798 12.3818
697 1 20.8138 1.45068 9.73602
1045 2 17.9174 4.22079 12.8572
626 3 21.0805 2.86813 11.4382
122 2 22.6303 2.64821 12.2447
385 2 22.4174 2.17376 10.8242
1809 2 19.1053 1.41021 13.0125
1796 2 23.598 4.31338 11.3332
2014 1 22.1458 4.0492 9.94461
2015 2 22.8518 3.83058 13.4039
442 2 24.3397 1.02731 10.4941
1533 1 25.0468 2.80438 11.7911
220 2 26.9179 0.353827 12.6324
1010 2 24.8782 -4.94098e-04 11.3967
1950 2 25.7491 1.24836 10.3278
1195 3 27.1804 1.83617 12.5898
1480 1 24.356 0.620631 13.6689
1536 3 2.28577 7.99185 13.2585
1556 3 0.463393 6.4245 11.9424
1712 2 3.65651 5.43582 10.5964
1897 1 2.67591 7.59378 10.8272
1661 2 1.50987 5.49012 10.9411
1134 2 4.68642 6.53966 13.0823
102 2 2.65588 6.48873 13.3686
713 2 3.1187 5.25378 12.093
573 2 4.99848 9.16417 11.8722
1828 3 5.19707 7.51322 11.5571
1323 1 5.99657 5.43062 11.4179
1520 2 8.09006 6.20263 10.9242
435 2 6.31786 4.46224 13.5044
1053 1 7.20614 8.16782 12.3258
91 2 24.4815 0.131185 5.09344
1057 1 10.6006 5.81491 12.1807
1282 2 7.91476 4.87918 13.2145
980 2 9.05407 7.51284 11.1217
1236 2 10.1925 8.16913 12.9018
1204 1 9.62537 6.15117 8.82099
1532 3 10.3055 8.06837 11.4212
2038 1 12.4826 6.41696 10.0738
1127 3 13.549 7.38919 13.1704
862 1 11.674 9.38219 12.1234
724 2 16.4612 9.10112 9.103
686 2 13.5014 6.9158 11.8849
304 2 16.5259 8.19434 10.6237
1409 3 17.0672 7.5744 11.7208
1484 1 15.7533 5.92013 10.9404
425 2 14.0089 5.12917 12.2046
839 2 5.10314 14.0947 12.3773
1695 2 18.6396 7.53704 12.1028
1647 2 21.5987 6.99819 13.8906
682 1 19.6366 4.77655 11.3491
668 1 20.4982 5.18718 13.9783
1268 2 19.9695 7.34055 10.7657
1449 2 21.2993 5.99077 11.1177
1080 1 18.5623 8.90016 9.96272
1645 2 20.7291 7.11706 12.4111
1406 2 19.3558 7.12584 13.5106
1086 2 22.9111 6.06977 10.4449
1741 1 21.5384 8.1176 9.93759
372 2 26.7859 5.67105 8.76223
1906 2 26.9054 6.91749 10.5141
1991 3 26.4545 9.11807 13.2951
1758 1 27.1347 4.69744 10.6984
884 1 24.9312 4.86532 9.85051
899 1 25.4255 7.81166 11.8917
1186 2 23.5812 7.53817 10.2662
302 3 24.3416 8.74485 10.4339
998 1 27.9211 7.3117 13.5333
517 1 25.1068 5.28732 13.0554
746 2 19.0186 13.3327 8.02109
604 2 24.8904 9.37863 12.9347
1493 3 27.1866 5.02003 13.4522
1370 2 24.813 9.91506 9.27255
2006 2 0.233393 9.79984 9.50153
1843 2 1.85835 13.6133 12.6954
944 1 0.852492 13.4688 10.9249
911 3 3.95291 10.1478 10.954
1751 2 3.05583 9.62435 12.3218
1283 2 2.51629 13.0969 9.35857
1974 2 1.16673 10.4068 11.9009
1927 1 3.16977 12.0408 11.5851
45 3 0.948573 11.7529 12.2521
710 2 6.42087 9.60303 9.23937
1447 2 5.03544 9.85336 9.88663
778 2 9.05308 12.5446 11.1718
1296 3 7.59778 10.1107 10.095
1137 3 5.85143 9.5975 13.1558
1719 2 5.25952 10.9194 11.7983
532 1 5.8834 13.1378 10.2572
1617 1 7.26117 13.2989 12.9392
967 2 7.52637 11.5976 10.89
1240 3 6.31857 11.9258 11.7856
236 1 8.80134 10.4353 13.6126
469 1 10.6057 13.4023 13.8215
410 2 10.1264 11.559 11.4576
1337 3 10.6802 11.3749 13.0699
489 2 12.6355 13.6601 13.7145
1913 3 11.4611 11.14 10.5691
1497 3 12.7476 10.5234 10.6035
972 1 12.5413 12.2319 12.0731
1709 1 14.5638 8.80925 10.0711
991 3 18.2963 11.1088 10.5069
719 2 16.6988 11.2264 10.6823
1833 2 14.7717 12.7367 11.1728
1024 1 17.0667 13.6216 9.73997
1164 3 16.5325 10.1196 13.4733
431 1 18.4984 10.8324 12.4962
1563 3 16.0851 10.5319 9.49288
1615 2 15.9585 10.56 12.1795
141 3 16.1241 12.2898 11.7843
2012 3 18.1598 12.493 13.9022
1772 2 27.8017 9.33595 12.9952
240 2 23.769 13.0258 11.5373
333 1 23.528 12.2403 9.47798
38 2 20.3758 10.3991 10.4718
1217 2 22.2689 12.7258 12.0149
1341 2 19.274 13.0999 12.6919
1777 1 22.4722 10.5117 11.8369
1089 2 20.7714 11.9114 12.4846
1836 2 23.5545 13.7324 13.3928
1378 3 20.4987 10.2035 12.2028
1984 3 20.848 12.3947 10.3788
951 2 19.3674 12.3712 9.99395
738 3 3.35314 13.5739 0.690425
1893 1 14.2645 10.3991 13.0204
490 2 22.2225 0.441118 2.69317
633 2 4.8929 2.14247 13.8864
144 2 23.4298 6.60217 13.9668
849 1 0.740529 0.0580507 3.56603
666 1 11.9085 13.8282 5.7987
525 2 2.82428 0.494413 4.22184
1438 2 23.9829 8.05248 13.7466
958 2 1.47883 9.27044 13.2182
1116 2 25.7078 8.00416 13.9474
638 1 17.4983 8.51744 13.9502
196 2 3.06617 1.26379 0.375249
833 2 0.653383 13.5406 0.125656
906 3 11.5512 7.67688 0.187603
2033 1 2.31498 1.60416 15.4558
455 2 4.10834 0.665329 17.1235
399 2 3.7903 4.65832 17.3088
1018 2 0.48905 2.45227 17.0229
447 2 2.02217 1.80589 17.6876
659 1 1.47414 4.1553 18.5384
1415 2 2.65307 0.0799976 17.7293
584 2 4.41135 0.564963 14.3953
234 2 3.86685 2.94149 16.4038
1558 1 6.36777 3.67667 15.6056
1498 3 6.92183 3.38292 18.2458
1550 2 6.02193 0.533922 17.6598
685 2 7.03392 1.78597 16.854
1665 2 8.68231 3.87663 17.7803
27 2 5.07957 0.0483294 15.704
483 2 8.85356 1.12633 16.2224
528 3 10.4246 0.780663 22.5121
1694 2 10.101 3.39729 17.2275
1106 1 12.5522 2.78136 17.1914
2024 2 11.5452 4.27144 15.9858
387 2 13.8174 3.17976 14.1103
756 2 10.3311 1.6452 17.2533
934 3 11.6907 3.01652 15.1099
1937 1 11.1936 0.986271 15.3328
1734 2 11.3801 0.344008 18.3781
41 3 10.061 4.12733 14.1145
226 1 17.1094 3.10212 18.3952
589 2 14.2569 3.80305 15.8048
1000 3 14.4897 2.47544 16.4943
320 2 15.1284 3.43633 19.0861
876 3 18.36 1.9099 17.0585
1488 1 16.6915 2.12155 15.6213
1295 2 19.379 0.811087 16.8013
596 2 15.4603 3.40718 17.3683
1304 1 15.4863 1.06357 18.0362
1995 1 24.0081 10.3983 24.6104
812 1 19.4611 2.40701 15.2385
305 3 21.7147 0.0737169 16.6992
1508 1 22.5573 2.36435 15.4538
286 2 22.4594 4.50197 15.0622
940 1 20.0738 2.66847 17.7357
1611 3 21.0789 3.87661 15.7892
1435 2 15.8509 0.199896 27.1814
811 3 27.0197 -0.00926479 15.5158
1221 2 23.1109 1.05955 17.3992
398 2 23.6852 4.98255 14.466
128 2 27.2994 3.66115 16.6536
1259 2 27.3325 4.12547 14.9791
1968 2 24.5701 0.906366 16.4367
1176 2 27.4286 3.07484 18.9357
1552 3 24.3139 1.79675 15.0675
969 3 24.3665 3.53213 15.6534
1324 1 25.1137 2.67491 17.5161
1062 2 26.9966 4.08144 18.1178
1276 1 26.5751 2.17941 14.7369
2039 2 0.123372 0.491278 14.6541
1701 3 2.43997 5.08411 16.9892
256 1 3.46828 4.53288 14.569
1683 1 3.23714 8.22169 15.2066
1400 2 2.51891 6.06201 18.1911
1766 2 4.61063 7.31863 14.6952
1385 1 1.04628 5.74476 15.1162
708 1 0.0242775 8.42853 16.1797
639 3 18.5512 13.8856 21.7912
2008 2 7.26892 4.68236 17.3501
1737 2 5.18804 8.27123 16.1514
1237 3 7.46698 5.79515 16.0197
837 2 8.67706 7.28614 15.6108
2027 1 7.18023 8.2442 17.0995
825 3 5.05419 8.83122 17.6838
936 2 7.97078 8.94178 15.1218
1768 2 8.7295 6.76496 17.818
400 2 8.87586 10.0106 18.8724
1718 2 6.15575 9.16005 14.6264
1022 1 6.73006 6.34691 14.3183
538 1 9.4659 5.16917 15.9257
1468 3 12.5172 4.92169 17.2058
1562 3 11.362 5.89977 16.4314
1779 1 10.4071 8.22265 16.6535
829 1 13.3797 5.83044 15.4226
933 3 11.6688 8.71742 15.1884
1593 2 10.4336 5.92963 17.7387
1693 2 12.9859 4.76007 18.6152
1626 3 13.9596 7.70907 16.7729
1548 2 13.1523 7.39911 18.0803
1254 2 13.1646 8.81045 16.0814
344 2 12.8059 8.30355 14.0416
968 3 15.238 5.08595 15.9612
89 2 15.4184 6.75919 15.9589
898 3 16.3787 7.7515 15.4661
1431 3 17.2999 5.15238 18.6499
1857 1 17.5711 5.697 16.527
1073 3 16.4337 8.86728 18.4645
642 2 18.7588 4.44126 18.5164
851 3 19.7895 5.17535 17.5902
272 2 19.9495 5.18176 16.035
853 1 19.676 7.56843 17.2147
689 2 21.6489 7.74956 15.2965
458 2 22.1601 6.88262 16.6594
553 2 18.921 6.87455 15.1114
1761 2 23.4203 6.69535 17.976
1884 1 20.3374 9.97556 14.5801
191 1 24.4055 7.67958 16.174
1177 2 9.92802 13.8165 22.8055
1812 2 2.1977 0.825596 21.9262
1071 1 26.072 5.24753 16.2065
123 3 24.771 5.94169 17.5362
1970 3 26.5155 7.69746 15.2035
1383 3 26.149 8.53896 16.4302
179 1 25.6243 7.91638 18.9916
1757 3 1.31218 9.56488 15.3972
1149 1 1.36031 11.9947 14.277
2048 3 1.36406 12.4623 16.3076
1764 2 2.47816 10.2716 16.4433
571 3 1.09631 12.2539 17.8172
1512 1 3.08581 11.6213 17.8792
1061 2 8.04321 9.99091 16.8587
364 1 6.17108 10.5753 18.0691
581 3 5.39183 13.034 17.3165
327 3 6.85514 12.6649 17.4076
1407 3 26.5198 11.0299 23.5932
1628 1 8.56862 12.8337 16.0661
163 1 8.71995 12.0852 18.4174
985 3 9.31166 9.72164 15.8791
678 2 12.2902 9.13025 17.9843
1971 2 13.4629 12.2262 14.2472
377 2 10.5385 10.1184 15.0734
1762 2 13.017 12.3308 16.3934
752 3 10.4276 13.376 18.2248
1889 2 12.1566 13.134 15.0309
487 3 13.4439 11.0552 15.1076
870 3 10.1662 11.5631 14.3373
1733 1 11.9564 11.6844 18.3419
901 2 11.3823 13.0137 16.8064
1271 2 13.4381 10.2718 16.8815
505 1 0.366487 0.152829 16.9276
941 1 15.9835 9.37089 16.696
1502 2 14.0884 12.3515 17.7529
1216 3 14.8907 10.9181 19.2016
1405 2 17.0247 10.5419 14.8769
1798 2 24.8686 12.8779 26.3311
743 3 14.7557 10.7249 17.7849
293 2 18.2214 10.3324 15.9948
1730 1 16.9648 12.2134 18.9019
1822 3 17.0729 13.2942 16.3418
844 2 18.2771 12.5317 16.6362
1372 2 17.3236 12.3239 15.0553
1939 3 19.3252 9.72038 16.724
983 3 20.7073 9.98059 16.9439
1364 2 22.0403 9.36506 16.3935
1208 1 22.564 12.2715 15.2633
1422 2 21.6626 12.1252 17.6213
914 2 20.1947 13.0736 17.3331
787 3 19.8873 12.177 18.612
1455 2 23.401 10.1636 15.5288
440 3 24.3786 11.3843 15.7855
781 1 26.7813 11.6373 25.455
1030 3 27.8728 10.2879 17.6898
1998 1 27.4798 12.6932 16.8882
381 1 25.6699 10.4442 17.3974
1032 2 25.8898 13.8314 25.5469
888 2 23.3614 12.1455 17.165
572 2 25.7166 12.6973 18.4108
1596 3 23.5515 13.9684 14.9188
1705 2 3.30022 0.282308 20.2002
828 2 0.801576 0.0266343 21.1956
1978 2 1.12304 1.75528 20.635
740 3 1.74914 2.79855 21.4678
1387 1 0.239667 2.35721 22.8243
1017 1 3.61933 3.67383 20.4212
1994 1 2.22086 4.39959 23.1369
764 2 0.727533 2.19745 19.0438
1128 3 4.08421 1.72789 20.1309
1085 2 4.58911 0.790513 19.0667
1523 3 6.46598 0.271101 19.0929
1557 2 5.97191 4.58877 18.5718
895 3 5.83995 0.541923 22.9268
1479 3 4.96307 4.54865 22.364
1049 1 8.41555 1.3996 18.9096
923 1 5.34169 2.31859 22.1962
300 2 7.66539 3.78321 23.2433
1363 2 6.93705 0.214568 20.4106
1005 2 4.33155 0.479026 23.5084
1253 2 9.83278 1.11954 20.6069
782 3 9.39163 4.2458 22.7079
984 3 13.713 2.15642 19.0869
1152 1 11.4606 1.98468 20.1858
790 1 12.4813 1.38796 22.6847
1847 2 9.68354 4.46592 19.0314
462 3 11.0553 4.6273 20.0979
2029 3 11.5118 4.18848 21.3169
1770 3 11.4786 2.92084 21.9637
225 2 13.3693 3.35229 19.932
1129 1 9.55765 1.56972 24.556
1467 2 17.1412 2.68496 21.8781
1266 2 26.7459 10.8927 27.5088
486 3 17.1707 2.4463 20.3504
715 2 16.64 0.0282608 23.0132
2042 1 14.8494 1.76005 20.6852
1441 3 14.9804 0.196428 22.7585
1921 2 18.02 3.67516 23.4281
965 2 15.3508 4.10741 20.6925
195 1 18.643 1.20656 23.1483
885 3 15.0541 4.91038 21.8622
1489 3 22.0126 0.132997 21.5914
31 3 20.9013 1.32758 21.8437
1291 3 20.1462 1.27206 20.774
1205 3 22.0978 4.54224 20.1928
1882 1 23.1061 1.67144 21.8127
1892 3 22.8212 4.09618 19.0539
1122 2 22.1306 4.81681 21.5378
785 1 20.2926 3.85679 20.9771
439 3 23.3152 1.47216 19.0691
845 3 24.605 3.8724 19.5512
1411 2 24.5853 2.20686 19.5302
1231 3 25.6917 1.64502 20.5739
1445 3 26.3249 4.03272 22.335
1410 2 25.8693 2.61218 21.8558
751 1 27.5027 0.907737 19.7622
1668 2 24.7288 3.87163 21.2476
537 3 23.4758 4.08277 22.0147
1006 2 25.5974 0.59787 21.8664
222 2 2.37958 8.45249 19.8975
337 3 2.53066 7.11228 19.1248
1395 2 0.605606 4.54269 21.5788
85 2 0.750769 8.16318 20.0674
1310 3 0.586256 6.15517 22.1576
1091 1 2.33454 6.79241 21.1858
1935 2 2.59854 9.32746 21.205
1742 2 3.16157 8.31561 22.4588
132 1 1.23258 10.3245 22.6413
1930 2 4.17124 6.87598 22.7801
1146 2 4.56051 6.74822 19.9364
770 3 0.145192 9.0375 18.8582
1388 3 2.87746 6.19029 23.0449
1656 1 8.87139 6.09246 20.4621
1803 3 7.36365 6.1666 18.3265
1551 2 6.21958 6.70542 19.2847
2013 3 5.03912 5.3849 19.6064
1581 1 5.85747 6.32748 21.3787
82 3 7.92793 8.00457 21.0665
1180 2 4.98627 8.19733 18.9284
326 2 6.52564 8.6186 21.4749
959 3 8.15002 5.02907 22.4946
181 3 6.47629 9.36023 22.7924
1430 2 12.5329 7.23637 20.0944
1081 1 11.442 4.11425 23.6929
1014 2 9.5801 8.20143 21.0698
763 3 13.2741 6.37603 19.0458
1133 1 12.8776 5.49871 20.8526
72 3 10.0233 9.55729 22.1505
1154 3 10.5602 7.72935 20.0476
1679 2 11.599 8.56073 19.7614
69 2 13.1089 9.36752 19.7529
1824 2 14.0743 9.38611 21.7373
1155 3 14.0535 5.77213 22.4605
1561 2 16.724 4.49374 21.8486
854 2 17.5289 6.21664 19.6844
860 1 15.8541 6.90381 23.046
772 3 18.7336 6.91715 20.3548
139 3 17.5766 5.9561 22.3477
1434 2 18.4298 7.51563 21.6499
1722 1 15.2717 8.29887 20.1289
277 1 21.0086 5.77357 18.8339
140 3 18.789 8.52901 22.7408
548 2 20.9715 8.18084 19.3953
187 3 19.7741 7.46158 19.6752
412 3 21.1179 5.30407 22.4409
121 1 20.7057 7.34556 21.7128
481 2 22.5291 8.0971 20.3304
253 1 26.6512 4.74296 20.7037
55 2 27.4938 7.12092 22.0122
1079 1 23.885 5.9321 20.4986
864 3 27.2012 8.64419 20.0249
1358 2 25.3818 4.69384 18.5673
1495 3 24.0582 8.23732 19.8361
1332 2 27.5092 8.32795 23.1672
1535 2 24.5845 8.57093 22.8194
250 1 25.4994 5.57471 23.5138
509 2 24.2384 8.44832 21.3347
2031 2 1.5007 11.8673 19.2099
701 1 4.64575 10.8103 21.6037
1920 2 3.17035 11.968 20.0895
223 1 1.36974 12.9205 21.2919
1144 2 2.36494 10.8225 20.7364
59 2 17.4028 0.122347 14.4844
956 2 3.29569 13.4634 21.5176
1256 3 4.73906 11.5485 19.4918
779 1 8.37857 10.1415 21.3016
1588 2 4.5527 9.88458 19.5244
1525 1 5.39403 13.2452 19.2481
1317 3 8.16273 12.2014 20.5272
725 2 8.15979 13.2509 21.8996
777 1 5.97052 13.0182 22.6944
647 2 8.97886 9.39312 23.6183
1795 2 7.0745 13.5358 20.4636
759 2 12.8508 13.6965 23.0564
1189 3 11.0662 13.4232 19.7669
1278 2 10.4215 9.91179 18.5966
129 2 11.3243 12.9472 22.696
543 2 11.3996 10.3197 21.9122
684 2 12.8182 10.2714 21.6007
1591 2 11.3501 10.9949 20.3218
1625 1 12.7393 12.7474 21.2025
417 1 9.2497 11.8012 23.711
1402 1 12.264 9.95293 23.8609
536 2 10.389 13.2899 21.0037
894 2 15.2197 13.5933 20.2738
1336 2 15.7111 9.59159 22.142
1028 2 14.0445 10.7464 20.4415
311 2 17.5738 13.0807 20.8218
1703 2 16.1198 12.2945 20.9841
1250 2 15.9941 11.1043 22.376
1869 2 17.3259 9.97051 18.6661
171 2 15.8356 10.4675 20.5472
1948 2 17.8871 14.0518 23.1242
703 2 23.6522 13.4692 18.7053
1305 1 20.3554 13.7221 23.4351
1087 1 19.3793 9.82358 18.741
57 3 19.6643 9.68085 22.3562
1888 2 21.5273 9.61532 19.7297
465 2 19.1681 12.6285 21.3769
1412 2 22.4323 12.7511 22.6935
9 2 21.2691 9.44419 22.7051
391 2 19.4632 11.6091 20.0098
211 2 20.0579 10.1485 20.9137
1517 2 21.1453 11.2161 18.9547
502 1 21.3824 12.5966 20.8368
488 2 22.4582 10.9744 22.9049
1169 1 23.4515 10.4532 19.945
1986 2 27.7184 11.4057 21.9757
229 1 26.4264 9.83058 21.6187
987 1 27.5494 11.0772 19.4047
1309 3 23.8893 9.85233 22.4944
874 1 27.2496 13.0653 22.9745
11 3 25.2745 11.9342 19.9612
1870 2 26.6362 12.3441 21.1044
1875 3 23.5782 12.4438 20.3029
989 1 24.6734 12.3332 22.4447
518 2 3.81245 1.10408 26.7413
2003 3 0.768062 3.37936 24.3766
1213 1 2.23568 0.867959 24.1825
1125 2 0.42634 4.06417 26.493
1427 2 3.14306 2.45478 25.8625
847 3 1.78876 4.21409 27.0718
395 2 3.10066 3.57852 26.9991
201 1 25.0645 -0.0130295 27.849
1223 2 6.72326 0.684828 26.4049
992 2 4.91863 4.33222 23.8653
1805 2 4.58224 3.26468 25.3036
1613 2 6.36565 2.72716 24.1703
1840 3 8.40007 2.68804 27.5472
316 2 7.35932 2.62858 26.2663
873 3 8.15114 2.79485 24.3997
332 3 5.41986 0.750671 27.2579
1261 2 9.3145 3.70468 24.3201
119 1 5.52788 3.32082 27.8094
564 2 13.2881 0.0248237 25.2411
1039 2 12.6951 2.84308 25.1064
1967 3 12.1789 3.5226 26.8646
1117 1 8.72696 0.55141 26.6953
380 2 12.2526 1.3474 25.1641
340 1 13.5122 1.72406 27.0401
1067 3 11.6662 4.30422 25.8823
1883 3 14.0802 3.43379 25.0833
1799 2 10.2431 4.40226 25.5437
169 3 17.2796 2.40645 23.6751
1515 2 15.6251 0.392999 25.5209
700 2 14.457 -0.0566166 24.0678
1879 3 16.9998 0.752862 26.0007
354 2 17.0495 0.999091 24.279
1443 2 16.5895 4.20124 27.0038
1788 2 14.9235 3.48131 26.6303
568 1 17.954 3.08887 25.6031
503 2 22.7881 3.77408 23.3008
1566 2 21.9813 1.39724 25.2174
114 2 20.0274 2.30169 25.0719
369 3 22.4552 2.3296 24.0165
10 2 20.0537 2.92784 26.9312
891 3 20.085 3.79626 25.4083
1353 3 21.8554 0.0156998 25.7804
1288 1 22.1563 4.02317 25.6733
1507 1 18.7774 0.722942 26.2509
2043 1 21.0967 0.264506 23.8039
1418 3 21.4545 3.76315 27.6878
1384 2 22.8798 4.84898 27.9447
2044 2 23.531 0.727079 25.0843
1417 2 22.8433 1.58292 26.8655
106 3 27.7225 2.76177 26.8097
1034 2 25.2928 0.618698 25.1614
1465 2 27.1515 1.83359 25.6823
1868 2 27.2609 1.51155 27.347
1621 2 27.5955 4.71237 24.3621
432 1 0.555515 6.91815 24.2903
1658 2 3.4958 7.7884 26.4827
867 3 4.15705 9.29872 26.6259
1965 1 3.51291 8.65189 24.6444
1302 3 1.33592 8.66073 25.3363
12 1 3.51803 5.33917 25.3291
1075 3 0.702382 5.38882 27.3512
654 3 2.12958 8.19595 26.3935
1782 2 1.44433 7.94012 28.0276
289 1 6.86906 4.70342 25.5048
1763 3 7.10665 8.08368 26.9697
994 2 6.56563 7.70785 25.7211
484 2 9.06727 5.48356 25.8103
822 2 8.20309 5.39991 27.3276
882 2 5.34668 7.01956 23.9823
963 1 7.81829 7.17066 23.3986
1790 2 6.0295 8.67057 24.4814
2005 2 7.95937 6.73914 26.2417
202 1 5.12074 6.33824 26.8951
1686 1 10.9058 6.81698 25.5567
1629 3 12.9 7.5641 26.9911
451 1 13.5443 5.56553 26.2073
1218 3 9.86636 8.37097 24.5512
840 3 11.3511 8.52706 24.7325
422 2 13.3754 6.72122 23.5401
1527 3 18.9357 7.9227 28.0152
1820 2 17.516 5.23028 27.8743
798 1 15.6467 4.06078 23.6803