# LAMMPS data file written by OVITO Basic 3.7.11
2048 atoms
3 atom types
2.0439509364 30.3240490636 xlo xhi
2.0439509364 30.3240490636 ylo yhi
2.0439509364 30.3240490636 zlo zhi

Masses
 
            1   12.01100000             # C
            2   10.81000000             # B
            3   47.86700000             # Ti

Atoms  # atomic

159 1 4.69572 4.52164 5.27597
423 3 5.34989 4.66944 2.20028
292 2 5.60844 4.05478 3.61993
433 2 29.9774 14.8789 14.847
279 2 4.02394 4.56262 3.27159
1282 3 3.11887 4.0876 2.30986
1660 1 3.16333 2.17947 3.9463
1696 2 2.7453 2.50116 6.28599
1848 1 2.04478 4.95033 4.21106
253 2 5.33538 2.48125 4.31963
1719 2 25.0021 8.44526 2.20027
1191 1 7.36157 3.80193 4.96498
1947 3 10.2869 5.79919 5.01057
1766 3 8.56094 4.2415 3.29319
1809 1 10.4937 3.62809 5.08261
1950 2 8.88715 5.46362 4.83567
863 1 10.5588 6.59347 2.68498
951 2 8.10464 5.8167 3.11198
1162 1 11.9515 3.78269 2.03397
118 1 12.5613 5.49755 5.19394
1507 3 12.8518 3.03829 5.05459
1891 2 14.7818 5.92724 4.9924
722 2 14.347 4.85581 6.03313
202 3 13.4254 3.37266 3.86186
1502 2 13.7957 6.00649 7.74883
844 3 20.0302 7.59936 2.19092
1869 2 14.3471 3.1201 2.47431
1269 3 18.4809 3.04803 4.52215
1859 1 17.1174 4.44516 5.20076
1047 2 17.4442 6.32053 2.6861
906 1 19.2294 4.289 3.15101
1406 2 17.7677 2.61981 6.06176
1646 1 16.9866 2.37553 2.53502
1410 1 18.2824 7.14284 5.1608
1497 1 20.3486 3.04534 5.40171
1328 3 17.5898 5.24973 7.4445
2035 2 21.3838 3.30969 3.25856
1343 2 23.7868 2.27613 3.45678
727 3 23.5512 3.47464 5.74944
16 1 22.827 4.66087 4.15157
1005 3 24.3233 5.99832 3.59926
1479 2 22.1794 4.00583 6.59482
1731 2 22.7197 2.8631 2.38159
978 2 22.9325 6.95877 5.68702
589 1 24.5298 5.36893 6.25305
80 3 27.8358 12.4739 11.9095
1102 2 14.5425 2.23468 13.9991
800 1 26.1821 2.78448 4.91936
1111 2 25.3314 4.79877 3.93811
1347 2 14.0017 15.8224 13.679
508 3 26.6816 4.91339 4.31552
302 1 28.0652 4.80761 5.80734
1342 2 27.6333 3.94537 3.51618
1065 3 29.1086 3.62828 3.90904
1190 3 27.1831 6.67883 5.67526
1057 1 4.06018 15.5942 15.4895
1918 1 4.27108 8.65899 4.89814
1536 2 2.9547 6.79537 6.01024
619 3 3.03229 7.17152 4.6468
207 3 2.30157 8.39161 4.07122
8 3 6.64223 9.7602 4.61029
518 1 2.18682 10.5282 4.4619
1372 2 6.55928 8.93259 3.46755
628 1 7.76839 6.67598 6.37967
1174 2 7.51331 10.8171 5.27958
322 2 7.49623 7.12441 4.19495
115 2 9.25603 7.70605 4.78116
45 3 9.90934 9.05338 4.26457
684 1 9.94703 11.5875 4.13012
1636 2 11.4946 9.77249 4.16319
224 2 9.73689 8.90105 5.92473
962 1 8.48253 8.61578 2.43958
583 3 9.47763 7.79557 7.04312
740 2 11.0833 8.91884 2.84445
1305 2 11.021 7.41052 6.77701
762 3 14.1141 6.7572 4.13212
1588 2 11.9292 10.8699 5.13392
560 1 13.7628 8.05306 5.18803
606 1 16.5153 8.47241 2.48357
1213 3 12.7565 9.81777 3.46
704 2 14.4064 9.48012 2.75886
1784 1 16.0785 11.2333 4.96549
1470 3 15.7001 10.1086 3.30659
725 2 11.9529 11.1278 3.52645
359 2 15.3092 9.22639 6.36004
1621 1 15.9094 6.67553 6.76564
1955 3 20.1802 7.36067 5.00311
1570 2 20.3349 7.85941 3.53815
570 2 18.4747 7.12299 2.13387
557 2 16.5989 8.66648 5.03575
26 1 18.7954 9.86421 3.98954
1100 3 19.9503 10.407 5.66375
2014 2 17.9015 2.56675 7.99858
910 1 13.0145 7.65288 2.36887
378 3 27.4699 15.8543 13.2168
1633 2 20.3054 8.21412 7.17985
595 1 21.9395 8.58425 5.08918
1697 2 21.3224 6.2043 5.34122
1321 2 22.981 10.0307 3.43793
1783 2 23.9985 11.5566 3.68475
1214 2 23.33 10.3548 4.99851
1624 3 24.9851 10.7829 5.55519
262 2 25.4129 6.91411 3.42795
1297 2 28.9374 9.34527 2.2844
21 2 28.8877 10.9556 2.23055
1089 3 29.2718 8.74148 3.61594
375 3 25.4369 8.77613 3.48236
872 1 5.65894 10.6981 2.65657
938 2 25.9588 9.52819 4.80422
1769 2 28.3221 10.604 6.27307
1652 1 28.8893 7.58093 5.59532
1699 2 27.7995 8.62825 7.32249
1336 3 28.1908 11.2389 4.90124
1426 2 26.8634 7.7544 6.35459
781 2 5.91363 11.5096 5.058
1130 3 4.35295 11.3798 4.94962
909 2 2.14821 16.1082 4.18253
1765 3 3.1366 15.3485 4.88156
1001 2 4.53693 13.4218 3.5057
1036 3 5.57944 12.5932 4.06798
566 2 4.08186 15.6179 3.23861
1830 2 3.43205 11.8428 6.00029
1311 1 4.4027 14.0234 5.55821
1991 2 2.05556 15.758 2.47194
269 2 3.34875 13.6552 2.38144
453 1 10.8791 14.6073 2.90894
84 3 6.06301 16.0827 3.33586
377 3 11.2919 12.1524 2.54832
731 1 7.2948 13.7911 3.76437
1893 2 9.60303 14.8768 5.65234
494 3 9.98259 13.5878 4.80782
1150 3 6.71172 14.4011 5.72586
515 3 11.1475 15.502 5.68725
329 2 9.35571 3.01898 2.83355
1554 2 7.94291 11.7347 2.85948
471 1 14.1716 15.1951 2.32381
294 3 12.8801 13.7734 2.21225
941 2 15.7394 13.6677 5.71202
175 2 14.1657 13.167 3.00485
343 3 14.967 13.0129 4.38956
1679 1 12.8553 14.0218 5.66479
1503 2 15.0886 14.7868 4.64201
667 3 12.6842 15.6331 4.32782
106 3 18.9806 11.3594 6.30723
1236 1 16.5152 13.4661 2.72583
1198 2 16.8228 15.1131 5.18309
924 3 18.6667 13.857 4.98897
1454 2 18.1328 12.6408 5.75887
379 1 19.5678 15.6488 4.58932
380 2 20.1011 13.7459 4.20045
915 2 16.683 12.4057 7.16741
1232 3 23.2692 15.791 2.07035
201 3 21.661 13.1913 3.691
1176 1 26.965 15.1055 15.1226
618 1 21.5114 11.568 4.67434
1430 2 23.3733 13.5208 4.20394
395 2 24.2551 14.3641 5.38052
584 3 24.5919 13.0372 3.21218
1829 2 25.6116 11.5968 4.50372
1978 1 23.9004 12.443 5.93373
1349 2 22.609 14.8121 6.12625
1762 2 25.7884 14.3274 6.47363
578 1 22.1862 15.5745 4.00053
758 1 20.0931 12.9075 2.11366
1483 2 29.1269 4.01164 16.1164
1894 2 2.15733 11.1121 2.1442
1401 1 30.2118 15.3344 6.63261
73 1 26.307 11.5211 2.77369
373 3 28.2664 11.5587 3.73025
940 2 27.9141 14.7765 5.45773
1333 3 27.3904 15.3658 4.17338
768 2 26.897 15.5415 2.64549
677 1 26.9237 12.5063 5.80317
1035 1 29.2064 13.9604 3.59715
1931 3 3.46115 5.54086 6.60841
1782 2 2.98059 4.19275 7.44223
290 2 4.07701 2.89041 7.12785
930 3 6.57901 4.87699 6.4532
86 1 6.12618 2.63341 7.71486
223 2 4.87896 5.98999 9.05291
1107 2 6.00561 3.50531 9.78076
1754 2 4.46572 4.61892 10.078
1692 3 2.80247 3.88135 9.21902
41 1 4.67656 6.75147 11.383
1587 2 4.69143 6.18524 7.1472
547 2 6.77128 3.65087 11.1801
986 2 8.76282 2.92177 7.57942
715 2 6.51147 5.21953 8.04069
367 1 8.34207 4.30911 9.3599
36 2 10.6189 3.92069 9.03829
1080 1 9.87458 5.40793 7.35363
1356 2 12.2208 2.97051 9.10642
838 3 9.34115 6.09286 10.98
1524 2 10.7633 2.47227 6.87641
1755 2 9.78376 2.64868 10.236
1910 3 14.6247 3.19917 6.4948
155 1 6.19407 2.46216 2.11841
1120 2 12.0179 3.0939 11.2334
65 1 12.6833 3.7176 7.33442
267 1 14.1442 2.90963 10.0602
985 1 16.1082 3.76742 7.88717
801 1 12.2983 5.46619 9.05572
248 3 14.4681 5.51964 9.31751
1290 2 12.0582 6.1853 7.19952
1753 3 15.6401 4.46566 9.78554
221 1 19.149 4.16407 7.56656
1933 2 17.0576 5.6138 11.5991
468 1 19.4561 3.91354 11.3504
186 3 19.7119 6.87029 9.24949
1350 2 20.2864 6.52502 10.6339
636 2 18.0938 2.7628 9.59802
178 2 26.8579 2.0615 6.76415
393 2 28.9914 14.5935 16.1458
1363 2 21.5028 4.38893 8.40153
272 2 20.8567 4.86162 6.55726
1996 1 24.9397 2.78569 7.5701
1687 3 23.0061 3.07228 8.97717
442 2 23.6616 4.65597 8.34251
1840 1 23.7056 5.1243 11.1027
654 2 22.463 2.38054 7.54926
1202 3 21.522 5.23183 9.91512
1438 2 24.964 5.86247 9.35317
1319 2 20.8062 3.84916 9.72387
1437 3 23.6756 6.23397 8.86309
939 2 26.3079 6.54852 10.4025
1799 3 24.3288 14.1205 16.081
1751 3 26.4433 3.61737 6.85548
1296 2 27.4526 3.1837 8.1979
257 2 28.5689 4.54417 9.20979
432 1 26.3612 3.88999 10.1719
609 3 29.1426 5.70415 9.72483
2003 1 30.0233 4.44445 11.0692
1048 1 27.0907 6.50893 8.27766
1374 2 27.8339 10.9238 12.7592
1400 1 5.13389 10.0761 6.9435
328 1 4.89513 7.94702 8.4318
1461 3 3.49891 9.05039 6.67387
1912 1 2.68514 6.02337 8.89935
1620 2 2.9561 10.1885 7.42174
823 1 2.61776 10.1108 10.2893
874 3 3.14059 7.79788 9.96354
1568 2 4.98201 10.6209 11.1827
1509 2 4.73141 9.82011 9.8727
1271 2 9.94371 5.63271 9.72684
1802 2 6.31506 6.73894 9.70327
739 2 9.55025 7.126 8.92097
1378 1 6.88913 10.4131 9.73702
793 2 8.07812 10.5064 7.91304
1250 3 7.14215 10.6286 6.82151
1531 3 6.78903 8.32254 10.3918
1506 2 7.85897 8.16327 9.24864
2047 2 9.10716 9.76568 9.14149
1159 1 11.3888 9.72783 7.1216
721 3 9.3943 10.08 10.692
1090 2 11.3385 7.56389 8.29469
323 2 9.69744 11.2405 7.7183
2 2 16.5587 8.27807 8.19355
1674 3 12.1761 10.2432 9.00593
251 2 12.2361 8.58155 8.99067
85 2 12.5219 11.5486 9.35242
1411 3 12.46 8.11768 10.5865
2021 2 20.0279 6.13524 7.77394
682 1 18.162 9.23004 6.82677
234 3 16.2859 9.07052 9.35637
543 1 18.5437 7.72623 11.0689
243 2 18.8154 10.4874 8.7934
1788 1 17.9053 6.5018 8.81598
1244 1 21.9949 7.66764 9.44957
574 2 19.4589 9.40075 10.0852
902 1 17.7427 10.8693 11.0535
390 2 15.9287 8.94891 10.804
1654 1 23.9826 9.37693 7.43391
1258 2 24.1032 7.49583 8.43515
858 2 23.7646 8.78109 9.90826
1182 2 22.4513 11.3512 9.0933
1686 3 22.699 9.7379 9.41419
558 2 26.0064 9.82122 8.80998
260 1 20.8574 10.3083 7.61242
295 3 25.0156 9.77323 9.89228
1932 2 25.9965 8.85015 7.24884
600 1 28.0723 10.503 8.96883
104 2 28.8434 7.75062 8.0221
1557 3 28.7104 9.67595 10.5803
123 3 29.0801 6.1108 7.59705
241 1 28.9993 7.23737 11.1789
669 1 26.7454 9.55035 11.0764
1860 1 5.31218 15.562 9.51575
679 3 3.97318 14.5182 7.85173
196 3 2.35539 11.0606 8.55879
1030 1 4.29259 12.1357 9.2829
135 2 5.63147 12.3496 11.1695
644 2 5.18286 14.021 7.38029
192 3 6.46733 12.684 10.0177
724 2 2.40335 14.7963 10.6371
1717 2 2.97754 14.5225 9.0563
1742 2 3.53313 13.446 11.0735
992 2 8.9746 15.4608 10.5437
1904 2 7.05963 14.5501 8.0047
1986 2 6.24555 13.1833 8.49486
503 2 8.02192 15.3385 6.6066
1304 1 8.42971 13.0319 6.33635
1551 1 9.00237 12.8034 9.86672
1309 1 10.2166 14.6791 7.94364
190 3 10.1981 12.6762 7.90285
72 2 11.4487 12.8408 9.05923
867 2 13.3145 11.6299 5.97727
62 3 13.4245 13.0782 7.23431
623 2 12.7873 15.7234 12.5733
1855 1 14.7651 11.4441 7.61584
1261 2 11.7114 14.0333 10.0432
143 2 12.8827 14.0762 8.40469
1525 3 13.4394 15.4054 8.78327
1929 1 15.0997 15.1411 7.10406
20 3 27.874 8.27178 16.0392
88 3 16.1647 12.1394 10.4791
1154 3 12.1047 15.4368 11.1819
1403 3 17.3462 15.8282 6.54201
893 2 19.3976 15.6641 8.20591
1386 2 17.6914 13.2222 9.97947
576 3 20.2166 15.4314 6.80488
586 1 20.5997 13.5721 6.61362
409 2 18.1123 11.8675 8.24452
634 1 18.0033 14.161 7.83806
2038 2 19.7523 14.2025 9.69652
437 1 18.4878 15.4798 11.3149
1421 3 20.6628 14.3149 10.8965
333 2 19.5803 12.5288 8.83978
1878 2 16.1244 13.1555 15.8921
1577 2 24.1107 13.6483 7.82804
1259 1 23.9674 12.7219 13.1409
1051 2 22.5227 12.6871 8.19591
752 2 22.667 14.2683 8.0287
1989 2 21.9702 14.4354 10.3831
334 3 22.2307 15.4273 8.84453
1435 1 21.0319 12.0573 10.4958
880 1 23.9349 16.1838 7.15397
779 3 22.6264 13.1362 10.7137
955 3 23.1347 11.9735 11.4616
1605 1 24.9309 13.2836 10.654
54 3 25.4041 15.7596 10.4397
70 2 27.515 14.2877 7.11988
325 1 29.4221 12.1971 7.43549
802 1 29.2075 13.4627 9.98221
1234 2 26.7453 14.0048 9.5065
1521 2 28.031 14.7534 8.57558
215 3 25.2298 13.0464 8.87677
1063 2 26.5655 12.123 8.22152
341 1 26.6502 14.4852 11.7855
629 3 4.92382 3.40041 14.0506
1216 1 4.2254 3.5432 11.7178
1489 2 29.8209 5.67901 12.9675
734 3 3.22666 4.71906 12.8469
480 1 6.93379 3.77552 13.2835
1248 3 4.5815 5.16897 12.9174
719 1 4.99443 6.51007 14.5506
891 3 2.16232 2.58993 12.344
1668 2 2.18373 4.01011 15.1311
239 2 2.27636 3.72661 13.3913
467 1 4.53555 3.70899 16.0393
1915 3 3.32706 5.21373 15.7689
812 2 6.37829 5.39077 15.8104
312 2 7.58465 5.24827 11.5364
1951 1 9.76212 4.4399 12.1154
1283 3 8.75466 2.82347 13.2887
431 3 8.31963 3.24092 14.615
1716 1 10.1271 5.06096 15.5427
534 3 11.4258 4.59201 13.7197
1921 1 30.1113 13.8353 12.7806
1397 2 11.952 2.89649 14.3755
1355 3 9.93956 6.23466 13.8539
1776 2 15.8408 5.90524 10.3491
1533 1 16.4042 3.59338 11.815
1194 2 14.0156 6.63351 10.7308
411 2 12.4888 4.14704 15.2477
1245 1 13.4166 4.2329 13.155
890 2 13.8269 5.67994 15.2497
314 3 15.3481 3.52221 13.6019
1647 1 16.2601 4.14265 15.4043
1984 3 18.1238 2.13315 12.3019
289 2 18.5402 5.87125 12.5868
288 3 17.7665 2.41396 15.8923
1377 3 17.9609 6.29278 14.0722
2039 3 20.6811 3.92314 14.5384
832 1 19.0822 2.75574 14.0747
242 3 19.8895 6.43703 12.0572
1239 2 17.092 6.38256 15.3176
154 2 21.0789 2.58304 14.8296
1391 2 25.2027 13.5576 14.9893
1688 2 21.5067 3.70413 11.5704
1639 1 24.9123 2.86751 13.3835
569 2 21.3102 3.86749 13.233
650 1 22.8636 4.19155 15.378
522 3 25.4367 4.41893 12.1173
973 1 24.1683 5.60558 13.7491
1890 3 22.7693 5.79439 12.4499
703 2 22.9127 3.79706 12.6719
969 1 20.7259 6.28327 13.9047
526 2 25.3636 4.36015 15.3413
1432 2 28.4594 2.0728 15.4098
630 2 28.983 2.90988 12.4559
163 3 26.0541 4.78306 13.4031
994 1 27.9556 4.2249 13.6697
244 2 26.9326 2.68568 14.9329
361 2 27.3916 5.96927 12.1492
1493 2 24.091 15.478 11.3236
1026 2 6.82893 8.03376 12.0444
1685 2 6.36403 11.0967 12.3422
1922 1 4.0624 9.26592 15.1583
770 2 2.70645 8.02686 11.4146
313 2 3.01093 11.371 15.5748
212 3 2.57208 8.37461 14.1008
596 2 5.34345 8.54259 12.5719
245 2 3.59308 8.54394 12.8713
1388 2 5.85233 10.0856 13.3982
816 1 2.34536 7.02677 16.0324
991 1 3.90286 11.5903 13.0584
612 2 8.07808 7.13938 11.0266
1010 1 10.1914 9.31101 15.8815
1983 1 7.15496 8.03099 14.1781
185 2 7.15411 9.43922 12.5866
1310 3 7.72496 11.0432 14.9347
1233 3 9.73815 7.20655 14.6682
726 2 6.17856 10.3117 14.8644
1634 3 8.52802 9.86065 11.7689
599 3 12.5647 6.74872 11.0743
1706 2 13.6226 9.58003 10.5472
354 2 14.7202 9.55284 11.9629
685 1 11.8061 7.09122 15.5467
1267 1 15.619 6.92481 12.9284
37 3 14.3306 7.18565 15.2383
659 3 11.6455 9.05079 14.6466
1037 3 11.925 10.3351 14.8299
392 1 12.9833 8.7822 13.4039
1535 2 13.5449 10.4622 15.2915
1825 1 15.5997 8.42273 15.5805
935 3 14.8699 9.94797 13.3521
455 2 18.9087 11.593 12.9554
512 2 16.0757 9.24882 13.7346
1341 3 17.0917 9.37811 12.2803
1424 1 18.2809 8.26199 14.4501
751 2 18.9839 10.9033 14.9809
661 3 20.6172 10.0685 14.8608
1914 2 21.0306 10.519 13.4433
984 2 21.043 8.70821 15.9702
363 1 20.4345 2.04704 9.24546
723 2 19.6006 10.5827 11.4895
1962 1 23.9733 9.6676 11.6753
449 2 22.4563 11.1076 12.6133
1020 2 22.846 7.32097 12.5501
1132 3 24.438 7.27972 14.9439
1641 1 22.6236 9.4196 14.4989
830 2 24.2466 7.91512 13.4155
1615 3 24.9205 11.9655 14.8805
1380 1 24.5587 16.0931 14.4872
1011 2 28.3132 11.1544 10.8615
1968 1 26.0009 10.089 13.5702
1604 2 2.13059 7.20787 12.8605
247 2 29.6554 11.7789 13.7768
2011 3 26.6679 7.23815 11.7664
1004 3 29.5949 11.0813 15.3143
1734 2 27.4798 8.44679 12.7288
968 1 29.1623 9.05651 14.3763
917 3 27.1078 9.21344 15.1542
983 2 30.0516 11.7916 12.2445
1644 2 3.80529 12.9365 14.8385
1807 1 3.21664 15.9264 12.328
765 3 5.7904 15.7581 14.2827
1412 2 6.56747 13.6194 11.5243
552 2 4.84373 14.0988 11.67
1205 2 10.9745 15.4926 9.94829
1739 2 4.01626 14.0595 13.8194
1490 1 5.92867 13.0389 13.7604
1097 3 6.95562 14.6608 14.7222
1763 2 10.7569 15.4339 14.3277
1028 1 8.16899 12.0222 13.3585
1337 2 9.13458 12.5422 15.8378
1329 1 6.41754 16.1268 11.8909
1593 2 8.46271 14.5935 13.4969
206 3 7.83077 13.5582 12.2168
699 2 9.92057 13.7633 14.4172
1743 3 9.76594 12.66 11.7993
662 1 10.3822 14.5444 12.0151
1826 2 10.7847 12.6734 12.9552
1050 2 9.30668 14.8614 15.6489
167 1 11.0547 11.1132 11.0748
1324 1 14.5191 12.1453 11.4419
626 3 14.1142 12.9467 13.7582
1839 2 11.2328 11.1032 13.8438
625 1 12.5183 13.9028 14.6032
479 2 13.5833 12.1464 15.104
1565 2 15.0695 14.1768 13.6254
2020 2 27.0184 12.3559 13.2296
1958 3 24.2541 14.5794 12.5566
235 3 17.4383 13.8107 11.7061
1 1 17.6245 14.9939 13.6002
1653 2 19.8898 15.5429 13.3496
1715 2 18.0321 12.6376 12.5009
946 1 20.9579 12.1115 15.5703
1200 1 20.7059 13.5345 12.8912
1268 1 30.0593 2.56091 8.16562
1767 3 18.9693 13.354 14.8913
6 1 16.3802 12.0157 14.1543
1419 3 16.4334 13.2351 12.4446
1522 2 19.5176 14.874 14.9868
1399 2 25.4681 14.4883 13.6354
826 1 22.6203 15.9273 13.3498
1468 3 22.2691 12.2512 13.8423
1795 2 20.9367 15.8584 8.08146
753 1 27.7531 2.12348 2.38485
1308 1 28.2809 2.05721 10.6076
1017 1 14.9172 15.6014 15.6478
1158 1 20.362 4.98255 16.1433
1188 3 19.5175 8.23197 16.1495
1452 2 24.3872 10.738 15.9185
263 2 4.69048 11.6251 15.9992
714 3 16.5695 14.5147 16.0178
1548 1 20.8446 10.0747 2.48087
681 1 14.2078 5.43019 2.13766
1362 2 18.8389 15.3721 2.66201
1939 2 4.34627 6.04314 16.6053
1008 1 2.52806 5.28828 18.028
767 2 4.58069 4.70927 19.7995
44 2 5.92828 6.40092 17.2173
1351 2 4.89029 5.28021 18.2492
738 2 3.71678 3.49243 20.6997
1712 1 5.01747 2.83142 19.0832
339 2 2.6 3.09893 19.4125
1553 3 3.55058 6.1279 20.3669
130 1 29.9932 2.39076 17.7071
1683 2 8.753 4.38776 18.5289
391 1 7.2962 5.31466 19.3975
2048 1 10.658 5.76169 18.1231
1145 1 7.73147 2.29946 20.0276
1529 1 10.0602 4.01053 20.2826
1789 1 8.1125 2.95872 16.6489
1901 2 9.01674 6.60997 19.5105
482 2 8.68922 5.27101 17.0649
1774 2 10.2641 3.39298 17.9385
1431 2 12.6219 5.20661 16.6601
461 2 11.766 4.05211 19.2014
1262 2 14.2002 4.16947 16.6982
1623 3 15.4648 4.53252 17.412
960 1 12.2792 2.76442 17.2246
1112 1 14.946 2.22503 18.049
425 2 12.7932 3.70447 20.5793
2043 1 14.6761 6.23013 17.3253
1728 2 15.513 4.11956 20.2169
1959 2 12.3606 2.54123 19.6413
1318 2 16.5804 2.07736 19.3967
1126 1 17.9468 4.60415 20.0309
791 3 18.6589 6.28411 18.8655
376 3 18.5375 6.62652 20.2344
336 1 21.3204 16.0789 23.9907
1842 1 17.8824 2.8225 17.914
454 2 19.8903 3.85194 17.9085
1492 2 19.339 2.8411 19.4554
773 1 20.6966 5.93382 19.2603
1019 1 17.5909 5.67713 17.4261
1116 2 25.7619 13.4923 24.6091
321 3 22.7041 2.37174 19.3001
1237 2 23.071 4.895 17.9845
460 2 21.8144 3.93356 19.0311
1889 1 24.4356 5.9951 16.8628
469 2 23.9958 2.44867 18.4991
1061 3 22.4282 6.01467 16.9803
1086 2 24.9365 3.81913 17.2276
142 2 25.6375 2.53354 18.4223
1729 3 29.1333 4.55639 17.5782
370 3 27.7446 5.18107 17.5764
971 1 26.0914 4.70688 19.019
1491 1 28.7872 3.96458 19.8432
1775 2 26.4919 5.21681 16.7678
943 1 27.4432 3.00343 17.2672
554 2 26.9793 2.31228 19.3226
796 1 4.45892 7.26647 18.901
963 2 3.83902 10.2328 17.454
270 2 3.15151 8.64308 18.0202
385 3 6.55762 8.76145 19.6494
1024 2 5.8153 9.11189 17.9554
1246 2 4.6917 10.066 19.0179
1043 3 4.5512 11.2345 20.0181
1270 3 2.18901 7.50135 18.5719
1952 1 2.10574 11.823 19.9852
1407 1 8.11432 7.26327 17.8091
466 2 10.822 8.64063 18.0594
1023 1 8.14483 8.648 20.946
1494 1 6.92811 10.7442 17.0786
1113 3 10.2255 9.43163 20.7923
861 2 9.96323 9.79079 18.9575
463 2 7.06656 9.89272 19.0991
756 1 11.701 7.60212 19.7181
496 2 12.3377 7.2973 17.5628
900 3 15.6471 8.6861 17.7732
1919 1 15.7728 8.5673 19.8698
1384 2 13.9347 10.1164 19.3966
1547 1 13.4712 9.30865 17.8673
42 2 12.1758 10.0032 19.9574
961 1 14.2575 10.6672 21.5462
834 2 13.3276 11.5763 19.8603
443 1 14.7087 11.7194 17.369
394 2 18.0712 8.96164 16.7464
1510 2 17.4671 7.48476 20.5201
1320 2 20.5112 9.53955 17.7357
1511 3 16.9114 8.37954 17.5591
1560 1 18.9141 8.25529 19.2424
139 3 18.9254 11.8431 18.634
920 1 16.854 10.783 18.7188
1562 2 19.0863 10.8071 17.3992
851 3 17.6583 9.36229 20.3532
540 1 18.3141 16.095 20.378
1314 2 22.6391 6.72332 18.3731
1367 2 22.0357 9.6677 16.8176
217 1 25.4413 7.14015 20.6571
125 3 22.1267 7.67899 19.5133
957 3 21.941 11.0342 20.3443
527 1 23.2029 9.22418 19.0073
1224 2 24.675 11.0622 19.1583
1451 2 21.0888 10.6406 19.2918
499 2 22.6108 11.1388 16.5536
93 2 24.4117 11.4607 20.6211
1672 2 20.8058 16.1644 26.1478
1900 2 25.7354 7.91456 18.5034
1527 1 27.6176 7.3095 17.7126
22 1 28.8108 7.14152 20.1146
1772 1 29.6615 10.4113 17.4509
937 2 26.8381 9.0298 18.1704
11 2 29.0091 9.9066 20.8915
840 1 26.2535 9.65072 20.2924
1941 2 27.5476 2.48266 25.7701
702 2 28.3424 10.8223 19.3074
1960 3 27.2827 10.5232 17.9019
1586 2 4.21447 12.5202 21.0899
1143 1 5.52321 15.6198 19.2277
1911 3 4.14044 13.7571 18.2385
1480 2 4.97037 13.0309 19.4854
1896 2 4.5284 12.3407 17.7051
1163 1 6.37929 14.2162 16.9694
1472 1 3.03903 14.2284 19.9909
47 1 6.49972 11.3631 20.8984
1029 2 3.06671 15.1486 18.0095
2044 3 4.08211 16.0746 17.666
2009 1 2.41269 13.2364 16.8571
1556 3 8.6988 12.3288 17.5599
1566 2 8.79043 13.0205 18.6955
282 2 8.5468 14.28 17.3545
1127 2 8.48911 14.1161 20.2012
1083 2 8.73384 10.8048 18.6109
318 2 7.95028 14.8078 18.9217
693 1 10.868 15.1203 18.378
1307 1 10.8929 12.3077 19.3628
179 3 11.9095 13.3 17.6152
1108 2 12.9206 12.3274 16.4462
2040 3 13.3653 14.1149 19.2678
57 2 23.2625 15.95 28.5904
1302 3 12.2844 11.8799 17.7593
903 3 13.5194 12.9584 20.2524
1817 1 15.4567 14.2988 18.4551
213 2 13.4049 15.4238 18.7919
464 2 12.769 14.5791 16.7509
1681 2 20.5479 11.8698 18.2206
1210 1 18.8939 12.8251 20.4426
305 3 19.1305 15.3299 17.6935
15 1 18.0078 13.1367 16.9346
668 1 6.13624 6.4408 30.2937
1264 2 17.1661 13.977 20.6903
420 3 16.6595 12.9143 19.5987
1466 2 20.1042 15.5061 18.7961
12 2 16.6243 12.0699 21.1713
1885 2 23.9619 11.3785 17.6228
1797 2 23.9488 13.4824 17.6306
1821 2 20.9209 14.1609 20.0555
1106 2 23.5322 15.1518 17.0247
1003 1 23.0512 12.6084 19.7944
638 2 23.4039 15.2043 18.696
1485 2 24.3049 14.9862 20.7285
1323 2 15.3177 16.1717 26.3575
1110 2 19.9229 15.8998 16.2967
100 1 26.6572 12.1094 19.4177
1044 3 29.8792 15.912 17.5987
788 2 29.2241 12.3355 18.3374
1530 1 25.3994 14.5993 18.7206
931 3 27.4281 14.1913 16.899
331 2 29.1223 13.5618 19.3189
652 2 27.9917 13.614 18.1742
344 2 20.0206 15.3214 29.8458
1965 2 5.07643 2.91001 25.6782
1382 1 4.98303 2.54245 23.2736
170 3 2.87212 5.78149 24.7531
610 2 2.1017 5.20364 23.5783
1841 2 5.75338 4.04293 24.5409
1665 2 10.3614 5.67388 22.4813
1379 2 8.52255 3.07246 25.3554
1691 2 6.64933 2.79642 24.8155
1851 3 8.09513 4.52164 20.9876
1170 1 8.79836 4.29069 23.3474
1786 3 8.45464 6.03178 21.0712
445 1 6.47725 6.38862 22.7607
1077 2 10.939 3.07283 22.7283
2000 2 7.90984 5.70437 25.0169
635 1 10.179 6.86599 26.0226
353 2 28.2317 11.9077 28.8735
1584 2 12.6887 2.17974 23.6386
775 2 16.3133 4.25302 21.7882
97 3 13.845 4.65709 23.4676
388 1 12.235 4.97991 22.306
944 2 13.6158 4.23159 24.9959
562 2 14.6485 4.00899 21.6062
188 1 15.4907 5.84121 22.4772
1630 1 14.1648 6.48266 25.3724
1072 2 12.4792 5.49148 26.1378
475 1 20.1358 3.75195 21.2915
485 2 16.5544 2.49989 21.0698
74 1 17.638 3.2652 23.0111
705 2 19.5888 2.34438 24.7098
1617 3 19.8202 3.17954 23.1367
258 2 19.318 6.83758 25.6426
1675 3 17.4544 4.09709 25.2211
298 1 23.5166 4.18055 20.9483
898 1 21.1664 5.64879 23.3848
1559 3 25.1068 5.1493 21.4955
1448 3 21.757 5.00699 21.6331
1495 1 24.6776 4.57972 24.1032
105 1 21.8694 2.84872 23.2308
2032 3 23.357 6.4558 23.9442
309 2 21.8365 5.48501 25.8103
2037 3 24.0529 2.76967 22.4381
5 2 25.3007 3.95234 26.4398
713 2 2.56084 5.13774 21.2219
1027 2 30.0642 2.25704 23.9209
1500 1 26.2305 3.25579 21.5809
418 2 29.6615 2.87913 26.3287
1381 3 26.0018 5.33664 25.9631
141 2 26.5352 5.76872 21.675
1228 1 28.1377 3.84177 23.8971
990 3 27.7502 5.23601 22.8809
1942 2 29.3544 5.59984 22.2708
208 2 26.8412 5.92686 24.7986
1792 2 4.7488 6.34626 21.0214
892 1 5.87201 9.87105 23.5084
1726 2 5.88971 7.49357 20.6566
297 1 3.55523 7.96347 23.9302
1281 3 3.97009 9.86788 22.5706
1168 3 5.00138 9.34992 25.3072
2015 3 3.30407 9.08204 25.3573
1690 2 3.35016 10.1843 21.2719
655 3 5.792 11.739 24.4317
145 3 10.3008 8.32742 21.5944
401 3 10.9178 7.04613 21.9156
1608 3 7.32745 6.83011 24.6877
436 1 9.13304 7.50433 23.2208
996 1 9.28403 11.0735 26.1348
950 2 8.0419 7.84006 25.4542
1561 1 10.8704 10.69 22.3024
1187 3 7.00516 11.3508 25.3074
1300 2 13.4701 7.1127 23.2873
1201 3 15.379 8.97816 21.8352
604 3 14.197 8.32618 22.6245
1702 2 11.7928 7.06822 23.9427
1033 3 15.963 6.74989 20.8189
1128 1 12.3471 9.60451 25.017
1446 3 19.4619 6.46008 23.2219
33 2 16.8023 7.94955 25.1694
1371 3 16.642 9.31417 25.5684
1555 2 17.6599 10.3749 21.6792
1606 1 18.6571 8.46689 22.2136
965 3 16.6272 8.21278 21.9235
89 2 18.5214 10.5306 22.8288
737 1 16.2639 9.58128 23.7211
660 2 18.7956 9.59427 24.234
264 2 18.8813 7.57972 24.1808
171 2 23.0025 10.2514 21.1525
936 2 23.8381 8.53345 21.0538
849 1 21.01 9.09318 20.958
1240 2 21.9284 11.4085 21.9077
1425 2 20.5742 7.78169 23.8891
1982 3 21.5551 8.73043 22.9127
1800 1 22.9648 6.89952 21.7794
426 3 24.3403 7.64247 24.0524
404 1 22.1893 8.62662 25.0602
1871 2 24.9532 7.50105 22.4646
140 1 24.7387 9.78712 22.9974
732 3 24.2955 11.4909 23.8643
1781 2 22.8114 11.8136 23.5442
1819 1 24.8983 10.1023 25.8411
942 1 27.5568 7.27466 22.945
717 3 28.5642 8.58021 21.8678
709 2 26.5136 8.60576 25.0713
1444 3 26.9782 9.59121 24.0941
614 2 27.4073 9.81802 22.6037
1815 1 30.1445 9.73875 22.7658
1599 2 28.0117 7.40663 25.2466
1850 1 29.1562 9.62082 25.3406
1857 1 4.00783 12.1883 22.9913
1209 2 5.20832 13.9502 20.9987
621 1 3.14007 15.3172 22.7561
544 3 6.12188 15.0044 21.9118
676 3 5.04663 15.1047 23.3218
748 2 4.64311 14.3844 24.8802
1062 3 6.36366 11.8997 22.8711
613 1 2.62055 15.4796 26.0457
1558 2 4.61175 14.2995 26.5042
1865 2 9.17125 15.7405 24.8632
1279 3 10.7781 12.2351 21.1792
1750 1 6.69329 15.2736 24.3906
794 2 7.07617 14.0689 20.9831
588 2 9.30173 15.1165 23.0349
852 2 8.80919 14.0884 25.0376
642 2 7.16231 13.008 22.7867
1189 3 9.78854 15.0595 21.5639
29 2 7.87133 13.7378 23.9228
23 2 10.2472 13.728 21.8456
327 2 10.8333 11.0923 24.5917
1881 2 12.3208 2.09559 22.108
119 2 16.424 15.3237 21.2511
1151 2 12.8888 15.2195 23.3506
478 1 13.3252 12.0528 24.1561
580 2 15.5871 12.0894 22.9253
387 2 13.4542 13.0202 21.8697
1651 1 12.3574 14.9397 21.1239
2023 2 12.4902 15.4398 25.0205
975 3 13.1749 13.8617 23.0211
1498 2 11.6621 12.8638 22.3926
316 1 14.9811 15.0113 23.2025
113 1 11.1301 13.2236 24.8424
1730 2 16.495 12.6386 24.2197
1184 2 13.286 13.3634 26.2047
169 3 19.0264 10.9529 30.2579
513 2 19.0938 11.1127 24.6239
422 3 20.355 11.892 21.7078
1225 2 17.5924 12.9462 25.1694
1771 3 16.6732 15.4715 24.8293
137 1 17.5296 13.5143 22.7087
355 2 19.4791 15.4671 22.8046
1447 3 19.7657 14.6895 23.9021
1144 2 20.8645 13.9056 24.5176
1288 2 26.9698 4.23067 30.2932
1352 2 23.5175 11.8294 21.9691
1301 2 23.5446 15.9467 24.4098
568 1 21.1346 13.8166 22.4054
1354 2 19.8826 11.6315 23.149
1427 2 22.255 16.0166 21.8099
470 2 25.3903 13.3622 21.0887
1778 2 22.7521 14.2286 24.5424
1365 2 21.9235 12.8217 24.4376
265 1 24.157 13.8701 22.7894
876 3 26.5694 12.6268 23.8269
304 3 28.2471 12.1925 23.4141
1849 2 29.5568 11.8109 22.8537
189 3 29.2815 13.5693 20.7805
750 2 25.5529 11.8339 24.5386
2025 3 26.185 14.6651 21.4625
1021 2 29.9742 13.1411 21.978
357 1 26.9617 14.659 23.716
133 2 25.324 15.7335 24.5965
835 2 29.3814 15.4089 23.9978
1519 1 2.07037 13.2967 24.6693
462 2 28.5848 15.0942 25.6769
1067 1 5.14511 6.57138 25.6473
707 1 3.13838 3.82873 25.3412
1927 1 3.91037 4.63751 28.7677
1332 2 2.12572 5.92321 28.0196
573 3 6.12326 5.56795 27.9993
894 2 5.38942 6.89955 28.0604
538 2 4.73033 2.12458 28.6107
198 2 2.98463 6.34238 26.081
525 1 21.8502 2.18813 17.0395
498 2 13.0134 2.59776 25.2352
998 1 27.6432 11.992 16.3732
1618 2 10.8961 5.0052 26.222
90 2 8.73137 6.0355 30.0163
1338 1 6.61844 3.42446 27.3223
43 1 10.1493 3.06334 26.9622
310 1 8.7667 3.855 29.0519
287 3 10.6607 3.87367 28.7799
1263 2 8.70739 4.41137 25.799
3 2 9.61443 5.40898 27.2872
966 2 10.1204 5.37675 29.2354
1172 1 15.3613 2.85024 25.5416
1540 3 14.651 4.74969 26.2458
1464 3 13.4212 3.20205 29.4678
1936 1 13.0 3.52456 27.4228
1773 1 15.54 3.67861 28.3383
158 2 13.9233 5.80852 27.6221
412 2 19.045 4.15194 28.1043
808 2 17.9523 2.60587 24.9693
306 2 17.6889 3.7009 27.0662
919 1 19.6275 2.42946 29.3411
120 1 19.7511 4.38743 25.9167
2029 3 18.1146 3.67954 29.429
641 2 21.0907 3.96062 28.0545
897 1 16.953 5.80544 26.0552
1812 1 17.4672 5.53242 29.0844
117 3 20.8194 2.56817 25.2423
1662 2 26.0233 2.05218 26.9987
19 1 22.5289 3.40079 26.1323
877 2 21.7697 5.70771 27.5525
631 2 21.5583 3.44553 29.7326
1416 2 22.7388 4.16371 28.6852
1682 2 24.2162 5.10404 27.6666
172 2 24.6066 3.19975 27.8445
934 3 25.0627 6.1676 28.7091
330 3 22.372 6.97934 26.6096
879 1 29.3026 5.62799 25.7265
836 1 27.7071 6.20191 29.5349
1475 2 28.3226 3.97645 25.9096
817 2 30.1303 4.01307 27.5404
1961 1 27.6623 3.20152 28.176
1822 1 29.1672 4.19827 30.2094
488 2 27.1757 5.58809 27.2878
1242 2 28.8154 4.96367 27.8506
472 1 2.50025 7.76727 30.1185
697 1 6.24119 9.26678 26.6584
1964 2 4.83957 11.031 28.3978
1722 3 4.81264 8.25463 28.497
905 1 3.29688 8.19482 27.3276
710 3 5.20258 9.65941 28.9586
108 1 4.11799 11.7649 26.1613
608 3 9.78187 2.36635 24.8851
1979 2 6.59647 9.45436 29.8806
1971 1 8.1047 6.911 27.8442
457 2 7.87801 9.18545 28.5951
1613 2 8.29861 8.56314 26.6629
489 2 8.74425 10.2455 29.4064
1171 1 10.5117 9.17852 28.1588
1758 3 10.1844 9.02347 25.518
648 3 11.4816 7.97351 26.8728
236 2 12.2807 7.28783 25.6985
1254 2 15.0505 6.58849 28.5607
1714 1 13.5886 8.17296 27.625
1156 3 13.3685 10.8872 26.1063
1974 2 14.6828 9.96539 26.8735
698 2 15.572 8.23509 26.6309
492 3 4.65733 2.16752 21.3786
486 2 18.5556 9.42736 25.8075
624 2 16.4119 7.28197 28.0134
7 2 21.0062 6.65018 25.4309
928 3 16.0813 10.1584 26.8295
1459 2 17.3951 8.71531 27.0071
1759 2 17.8249 7.82496 29.0662
10 2 20.6332 7.8954 29.2434
1732 2 18.1846 12.1554 29.9443
1496 1 19.3896 9.97107 28.4576
885 2 14.4758 10.7527 29.6671
1791 1 22.9382 7.384 28.786
32 2 23.7896 9.55556 30.263
585 3 24.2868 10.3507 27.934
240 2 22.9881 9.61391 28.3091
956 1 25.3437 7.02851 26.1687
430 3 21.5077 8.97812 28.6491
1206 3 21.7345 10.0656 27.3784
1181 3 25.5067 7.42678 29.8045
653 2 23.0587 10.965 29.9828