# LAMMPS data file written by OVITO Basic 3.7.11
2048 atoms
3 atom types
-0.0697083138 28.349806441 xlo xhi
-0.0697083138 28.349806441 ylo yhi
-0.0697083138 28.349806441 zlo zhi

Masses
 
            1   12.01100000             # C
            2   10.81000000             # B
            3   47.86700000             # Ti
 
Atoms  # atomic

800 1 4.0734 3.6927 2.82236
1538 1 4.36898 1.12093 2.06769
198 2 0.563723 0.782376 2.78134
1326 2 0.405896 1.0391 0.975683
16 1 1.91248 2.49612 4.72404
38 2 0.632308 2.3212 2.51125
1931 3 3.97591 2.11415 3.919
215 3 23.6545 10.1785 12.1775
389 2 4.09789 3.61986 0.590445
1682 2 2.71393 2.92261 1.42056
1939 2 1.09087 3.44627 0.952671
1566 2 1.6014 1.47106 0.0797883
468 1 19.8992 -0.00510926 12.4819
1930 1 5.86647 1.63777 4.28884
799 2 6.70654 2.92508 2.89629
168 1 8.41091 2.41877 4.01618
746 2 8.11766 0.359535 3.72259
1153 2 9.2649 4.3465 4.33621
152 2 5.56126 3.10927 1.29559
1658 2 7.12153 3.12194 0.481912
1145 1 6.9334 1.24746 1.83711
1633 2 8.84827 2.42798 1.37968
1468 3 24.6623 12.7021 13.7259
1613 2 9.83265 0.861536 3.43353
784 1 11.3887 3.36126 3.57472
1993 2 9.87553 2.64117 2.55452
737 1 13.5761 2.91727 1.1563
608 3 12.2127 0.208374 1.54422
1170 1 10.8893 3.81873 0.685253
842 1 12.0165 0.856601 4.37712
233 1 10.1516 0.545332 1.14475
1076 2 14.1418 2.30173 4.33102
158 2 16.5384 1.3287 1.9188
814 1 16.8287 2.91708 0.219332
118 1 16.4542 3.93812 3.33393
90 2 15.543 1.78603 3.28761
1457 2 15.7504 1.0955 0.635359
2021 2 18.3315 2.96655 3.89887
89 2 17.8863 2.47631 2.06048
1773 1 16.9705 0.312944 3.98013
1955 3 18.6471 4.23242 4.47315
342 1 14.4655 0.043796 2.19829
1540 3 19.3199 2.25819 2.82143
1954 2 20.037 0.614774 3.24099
1880 3 22.3268 0.805169 1.20287
52 1 21.442 2.84164 0.994134
291 2 22.5673 1.66096 4.70782
1070 3 21.4231 0.50098 4.4255
1646 1 19.0615 4.30395 1.85239
150 1 19.0792 1.01276 0.468133
221 1 20.7607 2.78837 4.26586
136 2 25.2301 3.98403 1.264
1858 1 23.772 2.23021 2.0953
1394 2 24.7375 1.01531 4.60122
727 3 25.7222 0.951683 3.08079
1363 2 24.9791 3.88481 2.95109
1791 1 26.8348 2.2246 1.664
1944 2 25.4364 2.39593 3.55714
558 2 23.9838 3.68817 0.154999
919 1 24.7 0.134201 0.872363
1048 1 26.8935 4.67893 4.15699
1788 1 27.5367 1.80034 4.41153
915 2 0.802313 6.33894 4.43502
1605 1 0.595096 13.9772 13.8631
170 3 1.23404 8.35285 1.33733
1067 1 1.45121 6.45029 2.08936
759 2 3.29437 6.47902 0.799117
1927 1 3.34495 6.41674 4.66344
421 2 3.44122 6.32022 2.39092
1652 1 0.336588 9.28316 3.17539
962 1 3.08189 8.65776 2.83428
1338 1 6.87909 4.96524 1.95387
606 1 8.92493 8.44953 0.227845
1288 2 5.01713 5.68373 0.687848
121 1 5.60219 8.17076 1.34075
950 2 5.05041 5.67261 3.10473
1691 2 6.72497 6.60779 2.80341
1947 3 8.17042 6.20768 2.64305
1434 2 8.29044 8.53412 4.47981
928 3 7.25919 9.37951 3.3287
3 2 9.15411 7.18814 2.82178
159 1 5.4427 7.97646 4.46009
1372 2 6.61853 6.3254 0.163404
1698 2 13.2672 4.87056 1.60239
1488 3 11.5765 5.39651 1.71414
910 1 12.2965 6.34211 3.53672
1171 1 13.6218 7.10407 1.08945
570 2 12.3393 8.49906 2.08089
1506 2 10.2438 8.39485 2.52845
894 2 11.5024 8.12585 0.483608
1971 1 9.8715 6.39781 1.01999
26 1 13.2905 9.20421 3.69223
359 2 15.0716 8.85092 0.38943
1977 1 17.3525 9.34117 0.274833
951 2 14.7747 4.62851 1.26112
310 1 15.5191 6.79681 3.30913
306 1 16.6159 6.78604 1.07147
1715 2 17.3916 6.31172 3.274
1459 2 15.3908 8.51933 2.18915
1784 1 17.6334 8.49171 4.20201
1328 3 18.2907 7.83067 1.25082
557 2 19.1366 6.65716 1.07086
698 2 21.5086 5.00739 3.07373
602 1 22.9372 7.81803 0.460332
169 3 21.4758 5.86571 2.03835
1496 1 20.1727 7.09077 2.94592
106 3 21.0794 8.10939 1.23598
906 1 23.6367 5.14392 1.59981
1190 3 19.4607 8.81501 4.23203
711 2 19.5638 8.51981 0.864717
501 2 23.1349 5.74637 4.26404
681 1 21.0261 5.57008 -0.0632469
1051 2 18.6977 5.67299 4.10514
1722 3 28.0043 6.02103 3.45383
697 1 26.909 8.46114 -0.0240406
1961 1 26.8689 7.29577 2.64639
1130 3 26.4707 8.68556 3.81422
486 2 24.8367 5.65325 4.51679
470 2 25.2933 5.39352 2.78489
1375 3 24.9515 7.02729 1.28532
1063 2 26.6436 9.63079 2.44595
1194 2 24.8078 0.0646734 7.94607
70 2 0.695388 9.48431 0.453132
748 2 0.577806 11.1424 0.918785
1460 2 0.933191 11.2374 2.44776
953 2 1.59952 12.8624 0.715023
635 1 3.98899 12.1772 1.51022
1894 2 2.00745 12.6314 2.729
457 2 4.00543 9.57215 0.7724
112 2 7.42857 10.933 0.983241
1660 1 5.82307 11.0198 4.02877
573 3 6.82799 9.85904 2.02859
255 2 6.17349 12.0754 1.36152
1378 1 8.75528 10.7939 3.48767
1881 2 9.32953 13.5475 1.0778
834 2 9.05311 11.9584 1.51052
1150 3 5.46582 13.372 2.02327
988 1 11.0168 10.4969 2.13192
333 2 12.1416 9.69129 0.629756
294 3 9.86643 10.8698 0.600882
175 2 11.7217 13.4836 4.35834
1364 2 10.0395 12.6327 4.08436
1588 2 12.7157 12.4563 3.6272
1805 2 13.5789 13.762 1.05575
740 2 13.5134 12.6648 2.22828
1719 2 20.8908 14.1268 1.45249
2033 2 15.7266 10.5037 2.97906
622 2 14.517 10.3511 2.07959
667 3 14.6012 10.0553 0.199343
453 1 15.6918 13.4178 0.596446
512 2 17.5905 10.5603 1.75586
1273 1 18.4688 13.5903 1.83527
1680 3 17.2563 10.4921 3.41027
1455 1 15.7569 12.8304 3.20406
1392 2 21.3415 9.5389 1.386
1485 2 19.2829 9.98673 1.48123
387 2 19.0419 11.3151 0.708803
1095 2 20.1364 12.4582 3.53353
595 1 21.1457 11.8332 0.73558
1214 1 19.3156 10.7269 3.36809
57 2 22.0941 12.5944 3.72041
1999 2 23.4097 13.8615 3.38317
472 1 22.3254 9.87419 3.47401
1567 2 23.1741 9.85942 1.19649
934 3 24.6621 10.3573 3.35405
381 2 24.5071 13.4294 0.355281
1572 2 26.1341 10.9752 3.63487
1111 2 27.5566 10.1199 1.07883
668 1 25.41 11.4579 1.43311
1918 1 24.2452 11.8675 4.48419
1519 1 26.3568 13.3288 2.33724
657 1 25.191 10.3763 13.5006
1374 2 24.5363 13.4534 12.184
232 2 3.92555 1.76095 5.29444
1268 1 0.756289 1.59009 9.11672
719 1 4.18846 0.904253 8.26975
18 2 3.06278 1.62329 6.63895
978 2 0.196546 4.07311 9.09695
1822 1 2.11725 3.45613 7.07023
716 3 3.91538 2.94934 8.55939
178 2 1.30383 1.36342 6.58688
1215 2 0.941546 0.588376 4.89504
607 2 0.390568 2.88643 6.28317
1479 2 2.20546 4.64388 5.0674
1305 2 1.61329 4.63126 9.03612
1611 1 6.50289 4.01477 5.47204
1289 2 5.20214 1.52906 6.47545
1934 3 6.22684 0.335327 6.61762
508 3 6.74268 1.8883 6.3076
1640 1 6.15073 3.47534 8.45499
382 2 8.53746 3.167 7.4044
1456 1 7.94528 1.20627 8.04623
471 1 9.30302 4.52985 8.65741
1029 2 13.296 -0.00492055 9.38683
1747 2 9.4944 3.09944 6.34328
1474 3 10.8586 3.54379 6.06257
862 1 11.0916 2.33681 8.88027
1183 1 10.3883 0.812265 6.39717
1507 3 12.5427 0.649999 6.85928
1470 3 11.3356 4.89294 9.20814
825 1 12.686 3.0596 6.42989
1706 2 13.1458 3.54567 8.55424
154 2 11.9455 -0.0429283 8.05051
1207 2 13.8482 1.06186 6.05425
1950 2 11.6425 5.145 5.60126
1254 2 15.1094 4.5067 5.21072
65 1 14.5161 1.76304 8.35755
1745 2 15.3733 1.932 6.19205
572 2 17.2827 1.58208 6.11036
847 1 17.5562 1.89539 8.46019
516 2 16.1261 0.368731 8.45929
762 3 17.4301 4.28387 7.0959
484 2 15.8376 2.3891 4.66471
682 1 18.8404 3.51613 6.22803
234 3 18.7233 1.20475 5.26045
1004 3 27.1312 10.49 13.6269
1319 2 20.7146 1.96075 9.2022
165 2 20.785 2.36064 7.62718
71 2 21.0432 3.9483 6.04782
973 1 22.4888 3.69503 7.94104
1203 2 19.8226 1.66933 6.10184
1415 1 23.552 0.748293 6.51341
1654 1 23.5761 3.53881 4.93318
1740 2 27.1622 2.90663 6.38599
363 1 25.3021 2.41232 8.52767
244 2 25.2878 2.3421 6.23321
1686 3 24.0824 2.77102 6.9794
1756 2 27.1487 3.64862 8.65606
564 2 27.0178 1.45786 9.25902
1497 1 27.6625 0.759835 7.24354
1751 3 3.34323 4.97081 6.43955
1841 2 4.89406 5.24849 5.77062
290 2 1.16079 5.65344 5.89072
619 3 2.32351 8.98706 4.86462
86 1 2.53811 8.07422 7.13398
241 1 0.80998 6.16328 8.06954
207 3 3.70259 8.3376 5.08409
1191 1 3.58746 5.37627 8.33252
1248 3 7.76754 4.56703 7.12048
753 1 9.103 6.16322 5.31875
612 2 6.31112 8.46242 6.70424
322 2 6.07638 5.89069 4.47789
739 2 5.00693 7.54236 7.838
167 1 6.55794 6.40182 7.1632
777 2 8.31409 9.20989 9.68146
515 3 8.83103 9.00943 5.73097
1464 3 10.9818 5.88631 4.66003
1324 1 10.4902 7.96105 4.82047
412 2 12.656 6.96197 7.6871
251 2 11.2311 8.97382 7.86776
138 1 13.9112 7.25381 5.77258
659 3 11.6882 7.66103 6.88406
1269 3 13.3142 4.8347 5.23223
62 3 10.0062 9.30752 8.70051
1742 2 12.039 9.08822 5.84483
88 3 15.4276 8.22225 4.57052
523 1 14.9665 4.82098 7.2803
1174 2 14.2418 7.36398 8.20817
1198 2 16.4425 6.50565 8.47703
1674 3 17.0069 5.38691 7.71688
1910 3 14.6065 8.66119 7.31458
260 1 16.913 5.96214 5.51498
586 1 16.4063 9.12565 7.87535
1458 2 18.4388 8.41251 6.44946
758 1 22.087 7.80806 5.11477
33 2 21.529 5.33177 5.35644
257 2 19.961 4.76751 4.95473
1005 3 19.4247 7.77436 5.63149
1410 1 20.1882 6.22027 6.90192
235 3 23.1465 8.43659 7.62893
409 2 21.1616 6.28696 9.40239
522 3 21.4379 5.38952 8.37554
1769 2 21.5679 7.9684 8.28268
654 2 -0.0398036 4.46451 6.16539
155 1 27.5613 7.60723 5.57517
210 1 23.1849 6.45507 7.86172
836 1 24.9672 8.62191 5.53384
1308 1 25.6067 4.67296 6.73076
1557 3 26.9817 9.05842 7.05934
1461 3 25.4215 6.73583 6.5939
1296 2 24.1715 6.32295 5.77215
1981 2 27.6006 8.03912 8.07115
917 3 27.2511 6.45566 8.33271
239 2 27.4077 5.18825 9.32438
1848 1 25.3791 8.48292 7.99171
278 2 25.7538 6.57859 9.20262
73 1 1.48466 11.5363 4.51869
1782 2 1.13533 9.67237 5.95498
249 2 2.25932 11.2489 6.96525
1754 2 3.35628 10.2973 7.93783
1964 2 1.37911 11.8714 8.02386
2 2 3.81135 10.7815 9.64301
1080 1 3.81107 10.5518 5.73104
1762 2 0.168805 12.8425 8.92503
1311 1 2.11563 13.7653 6.86484
1986 2 3.46808 12.8642 5.02266
1962 1 -0.00940049 9.97439 8.16817
362 2 3.78409 13.4439 8.34224
1205 2 6.60965 12.9305 7.66057
1795 2 4.98871 12.4476 5.89803
1250 3 6.21567 9.76651 6.11815
1531 3 5.93902 11.1121 6.08486
863 1 7.37125 10.3681 7.80041
328 1 5.0088 11.691 8.06103
992 2 7.31046 12.0058 8.96484
725 2 7.65454 13.5561 6.48732
1542 2 7.6945 13.3486 4.75201
490 2 8.76141 12.418 5.57818
1878 2 9.38939 9.6481 6.98493
1234 2 24.6768 10.3557 9.56238
1621 1 24.7821 12.8422 9.68671
2047 1 9.74337 11.3947 9.02423
489 2 10.546 12.4597 6.88732
1932 2 9.33417 11.3942 6.81433
935 3 14.1744 11.6014 5.97924
1309 1 12.0941 11.3794 5.56212
1879 1 13.1975 13.6842 5.82624
643 2 13.0467 13.4826 9.02368
751 2 11.985 13.2464 7.88432
1271 2 13.955 9.72632 6.14508
229 3 25.9543 11.1425 10.157
125 3 17.8776 9.62435 6.41722
941 2 15.0628 11.5443 7.3631
437 1 16.5675 10.5945 5.19762
1323 2 15.4151 12.1905 5.59198
1610 3 17.4736 13.6775 6.24763
1403 3 17.193 12.4563 5.1857
6 1 15.2678 13.7282 8.17914
1776 2 16.6971 11.2103 7.96311
1890 3 15.4806 11.5903 8.72475
1419 3 17.5167 13.8245 8.80106
59 2 20.5708 9.80072 5.00307
1265 2 22.4758 12.9265 5.34873
302 1 19.9598 10.0448 7.68873
873 3 20.5382 11.8116 7.14037
444 1 22.7188 9.99842 8.87516
902 1 22.1715 10.9381 6.31541
1732 2 20.7711 12.6397 5.76307
123 3 23.7453 13.2193 6.15095
858 2 21.4077 11.6868 8.9884
1039 1 19.5425 13.3495 9.03908
1430 2 25.6762 13.983 8.16583
1100 3 23.8683 10.0989 4.94669
692 2 27.4797 12.3117 7.89786
613 1 26.963 11.0647 6.13156
781 2 25.2669 13.8078 6.08151
1182 2 26.8818 11.287 8.99926
955 3 26.6327 13.268 6.91933
630 2 2.72919 3.51254 9.40501
442 2 1.49512 3.90667 10.5908
1369 1 1.54874 2.30475 12.3066
1218 1 4.54589 0.894041 13.0959
770 2 2.87356 3.93794 13.0106
41 1 0.559861 0.118097 13.6895
1483 2 4.56896 3.99253 13.684
467 1 3.83603 3.57592 11.2513
1692 3 2.47703 0.59624 13.1691
1596 3 8.83268 2.79905 10.1651
429 2 8.23931 0.298017 13.117
248 3 7.49889 2.46648 9.67207
1537 3 5.86085 0.502464 11.6971
1809 1 6.62884 2.59773 11.3546
1283 3 8.4082 2.92882 13.0018
1031 1 9.20291 0.857753 10.8787
1859 1 8.97883 4.70587 11.4903
636 1 11.8387 0.0424524 11.0678
406 2 12.8535 1.89312 10.0439
1864 1 10.4384 2.49768 12.9921
1533 1 12.9051 4.13447 10.8736
769 2 12.9411 1.46481 13.51
347 2 13.7265 0.040864 12.8774
477 2 9.93374 0.0861754 12.6257
599 3 14.1554 2.49046 13.8766
780 2 11.7027 0.419446 13.4991
587 2 16.3244 1.11343 10.0552
1416 2 14.4546 3.55721 9.47764
1891 2 15.5491 2.58576 10.8249
1047 2 14.1045 2.49797 12.3473
2039 3 15.2576 4.36719 10.473
1267 1 18.667 3.08547 12.7913
1112 1 15.9966 1.34597 13.1225
832 1 15.2002 4.60118 12.4553
1563 3 18.454 1.46606 14.0574
757 1 22.9096 0.106989 9.49332
1855 1 20.2188 4.28252 9.60355
1869 2 19.8641 0.875588 9.90435
1368 3 21.9985 1.84287 12.6069
454 2 19.3152 2.40569 10.5691
289 2 22.8038 0.90644 11.7397
1502 2 22.1329 3.01277 11.8038
449 2 21.2351 2.61673 10.5262
976 3 19.121 3.85137 11.1247
1377 3 23.2058 2.86752 10.4103
1871 2 22.5139 2.29039 14.0218
1661 3 28.2005 1.47882 11.2061
1086 2 24.1875 1.84551 10.5365
650 1 26.4421 0.477786 11.7911
469 2 25.1547 2.15018 12.0762
1996 1 27.115 3.21185 11.1317
713 2 25.9366 4.61762 12.6164
1673 2 26.1128 2.53593 13.5241
609 3 27.6868 1.91357 13.6638
1840 1 24.1269 4.73209 11.4846
423 3 1.98053 5.94404 10.0044
35 3 3.69073 7.32225 13.4861
1527 1 1.12339 5.72424 13.6286
21 2 3.28684 6.45301 10.3956
600 1 2.2265 8.42155 10.6499
1452 2 4.06504 7.60129 11.8692
245 2 0.287273 7.01998 10.1186
518 1 0.985036 8.82087 13.5587
930 3 0.205096 8.22262 9.2521
323 2 0.543788 7.50711 11.5862
983 2 4.44742 8.73144 13.96
1011 2 4.90402 6.40981 10.9679
292 2 6.45627 6.02615 10.7601
480 1 6.46756 7.85118 9.60391
1391 2 5.37139 5.64642 9.30957
1844 3 7.41536 5.58845 12.0979
812 2 6.23516 7.48523 11.7474
1648 1 5.75739 6.09473 13.5795
1766 3 6.94926 8.65148 12.0441
838 3 9.34419 6.47098 9.80745
1282 3 8.4636 7.38714 9.53176
1987 2 10.7181 5.47383 10.2479
143 2 9.372 6.02716 13.9514
543 1 12.9529 6.31237 10.1936
1356 2 10.4381 5.05507 13.3916
1120 2 11.5065 4.78261 12.405
329 2 13.5444 5.54033 12.5315
534 3 9.66661 7.66421 14.0377
394 2 11.389 8.37486 10.117
1390 2 13.2519 8.34007 10.5807
1716 1 10.95 6.95017 12.2815
683 2 12.891 8.0151 13.7419
42 2 11.1711 8.32062 13.8757
560 1 17.2357 4.6226 9.67447
1431 2 16.1081 7.62275 13.3523
1802 2 14.4458 6.70781 13.1616
37 3 17.3761 4.78359 12.9134
1951 1 16.1495 7.9338 11.0936
1753 3 17.5334 7.1608 12.5446
969 1 18.9698 5.86706 11.8607
1202 3 17.3791 9.20853 10.0747
1426 2 20.8695 8.60381 9.67199
957 1 19.2865 8.61956 11.7967
525 1 21.8314 5.20053 13.3363
830 2 20.7937 7.03742 11.0208
661 3 20.6671 7.2969 12.4496
1380 1 22.8569 7.51559 10.6106
1424 1 22.0924 8.43826 13.5654
54 3 24.0765 8.75781 12.5637
638 2 27.2986 8.91333 13.5407
1232 3 19.3669 13.0435 11.5515
1624 3 27.6191 7.9454 12.5957
1008 1 27.0567 6.16744 11.5867
365 1 24.5366 6.78485 13.0229
1912 1 25.8062 8.78478 11.5291
295 3 25.1179 6.52788 10.5349
325 1 2.90174 13.8762 12.6751
628 1 2.15783 12.255 10.3489
312 2 1.33798 11.7132 12.4423
1136 3 0.906723 12.9605 11.8476
1653 2 2.6563 10.6356 12.2982
1826 2 4.19491 11.7828 11.6788
583 3 3.5686 10.6918 11.0019
1400 1 5.14192 9.55325 11.8413
1304 1 5.5307 13.0521 9.86926
1612 2 7.42874 9.72226 12.9392
104 2 5.69868 11.9831 13.2058
1355 3 7.5964 10.1906 14.1462
223 2 6.4528 12.9984 12.0232
823 1 7.37443 10.6466 10.7817
1874 2 5.11047 13.7637 12.2152
1536 2 8.30203 13.6253 11.4834
605 2 7.35133 11.6776 13.276
1244 1 22.9279 12.2551 12.2957
1435 1 12.5274 10.5663 9.44039
946 1 19.5406 12.4024 13.8291
196 3 9.1945 10.2263 10.8123
243 2 19.8061 11.262 11.3065
202 3 10.8657 10.0807 10.3907
588 2 9.47293 12.2118 11.534
1411 3 11.222 11.7365 11.0964
1983 1 12.1952 9.76083 12.1703
1665 2 10.792 11.6228 12.8194
1825 1 12.9389 13.3088 12.1354
1020 2 14.0682 11.1822 11.1193
732 3 14.1867 9.58961 10.6483
455 2 18.3638 11.9619 11.7763
752 2 14.7641 12.3081 9.92773
1565 2 14.344 13.9484 10.0812
1046 2 15.2259 13.4429 11.5826
1522 2 14.8159 11.5488 12.8205
321 3 15.96 11.6078 13.6658
1019 1 16.312 10.6612 11.2505
1914 2 17.2429 12.481 13.1174
1320 2 18.3929 10.3471 10.2142
1978 1 27.0372 12.9969 10.36
971 1 14.9644 9.7645 13.7091
1454 2 22.6101 13.7906 10.2037
783 2 23.379 11.0757 10.6319
984 2 20.7765 10.0477 10.1796
924 3 22.7182 12.4875 9.66988
1524 2 6.88879 0.100769 13.9681
186 3 19.4279 9.87715 14.0836
704 2 18.3496 5.00229 0.0397016
1240 2 26.6928 12.6473 0.0510762
492 3 2.62948 1.06956 17.619
130 1 2.19597 3.67411 18.1551
1792 2 1.21834 1.25279 18.0695
284 3 1.96993 3.83848 15.3602
2003 1 4.30639 1.61265 16.0733
1729 3 0.589471 4.35675 15.5678
994 1 0.739377 2.18226 15.919
629 3 0.382264 2.77634 18.2965
1730 2 3.36372 3.08866 14.8396
1923 1 6.81225 2.28813 14.7773
965 3 6.84623 1.18346 16.8374
1573 2 8.16145 1.20838 17.3337
91 1 8.50508 4.71416 16.4219
431 3 8.85801 3.20141 14.3589
767 2 6.02113 3.92944 16.1305
874 3 5.62229 4.59386 14.7688
734 3 5.85423 0.396306 15.1466
1598 1 9.04172 1.15791 15.4615
846 2 8.49515 0.701414 18.9563
907 1 23.8404 14.0339 26.4373
376 1 10.2332 2.29638 17.9424
729 2 11.5683 1.4535 15.0616
1107 2 11.3996 3.05619 16.0114
446 3 12.2831 3.59538 17.4323
582 2 11.0147 0.41934 16.9274
960 1 13.2076 1.9811 16.874
225 1 12.4596 3.8297 14.4667
986 2 9.91878 3.08952 15.4604
1016 2 11.6295 0.894849 18.7145
95 2 14.4671 2.08999 15.2729
190 3 17.4238 3.72033 15.4342
502 2 15.8584 0.452694 18.1301
1842 1 16.2067 2.43872 16.8573
1090 2 17.495 2.24792 15.0228
194 2 17.1193 4.33285 16.9859
1239 2 18.6335 4.26931 17.9018
271 2 17.6414 0.290032 17.6544
50 1 19.5927 2.15583 17.997
1623 3 23.5462 1.46009 14.8458
1061 3 22.3872 3.84712 16.8911
1437 3 21.5004 3.46593 14.2347
1448 3 21.6762 2.5221 16.685
1133 1 19.7135 3.05401 15.3211
1177 2 20.9434 1.30915 16.4798
1710 2 21.7357 4.5209 15.5799
1711 2 23.2289 0.181134 15.6896
66 1 21.1061 0.208351 18.5905
1158 1 23.7674 3.27979 15.9088
690 2 24.3936 2.02467 17.8507
200 1 25.495 0.520242 14.9521
163 3 27.8622 0.249478 15.4479
1889 1 26.617 4.10599 14.7632
1575 2 27.1161 1.66462 15.2135
779 3 25.5819 4.24041 16.5671
1768 3 25.758 1.29032 17.757
1491 1 27.5569 0.219099 17.5399
270 2 4.20961 4.77911 18.6655
1789 1 3.82928 4.65126 16.2414
796 1 0.435251 6.00111 16.8515
968 1 3.18299 7.57182 15.5271
932 3 1.14518 7.04562 15.0018
145 3 4.28411 7.53118 18.7585
1332 2 3.81689 6.23251 18.3222
463 2 2.23752 6.19091 17.6574
1193 2 1.47001 9.14626 15.7454
185 2 8.33972 6.43172 15.1394
721 3 5.05726 9.41871 15.0403
1787 3 7.6859 4.7262 19.0012
1113 3 5.20181 8.50392 18.4347
1233 3 9.34688 6.99786 17.3757
1755 2 8.66482 6.18562 18.5878
432 1 7.28291 8.67607 15.1708
1494 1 6.08943 6.12448 18.4857
1127 2 6.94146 8.55628 17.8682
482 2 7.90616 6.76267 16.6845
1407 1 11.298 5.18499 17.8336
1102 2 13.0089 5.67006 16.0917
2020 2 10.5292 8.19312 17.0822
801 1 10.8306 6.71164 15.5079
464 2 12.3343 7.46282 16.9582
1555 2 12.8523 6.84587 18.6785
316 1 14.3185 8.74836 18.5144
1504 1 12.3659 9.22369 15.8214
1774 2 13.0647 6.54174 14.6122
1817 1 14.859 7.24306 15.5922
2048 1 17.1266 5.84392 14.3687
1492 2 15.9374 7.01201 17.786
240 2 16.7176 8.44338 14.5936
1882 1 17.7939 7.57001 16.8251
1245 1 14.8131 4.89348 18.3478
1984 3 20.8017 5.88746 15.438
949 2 19.7484 5.78117 16.6212
1606 1 21.8017 5.71528 18.0487
750 2 19.6767 6.8077 18.2044
1259 1 21.1117 8.07244 16.5206
1438 2 23.234 6.71286 14.7706
569 2 23.6519 7.29666 16.7361
1134 1 19.1434 7.34002 14.2778
1223 1 25.0129 4.8005 18.5613
1295 2 27.9707 6.93108 18.4095
370 3 23.9022 6.47668 18.0379
1258 2 25.7552 5.58176 16.1054
1480 2 24.8128 7.97035 15.7435
802 1 26.9941 6.78222 14.5511
1560 1 25.7457 7.29498 17.6935
242 3 23.6998 5.43232 14.5076
816 1 2.63889 10.6409 15.0411
1582 2 -0.055878 10.5071 14.6976
466 2 4.54507 12.3005 14.8018
1921 1 0.717555 10.0468 17.5608
669 1 2.34386 12.967 16.6323
1761 2 4.52951 11.9339 17.6819
963 2 3.93863 13.2562 18.5787
1224 2 0.670306 13.399 18.6924
652 2 4.59226 10.4024 18.1848
1644 2 3.29372 11.6617 18.4637
1783 2 1.2935 12.2587 14.7493
1489 2 0.368658 11.7675 16.0967
1246 2 2.96391 9.97099 18.8757
724 2 4.11312 13.8204 15.1398
1490 1 6.2509 11.0799 16.7971
1578 2 7.3577 10.3196 18.4476
939 2 4.97491 10.7857 14.5029
1310 3 7.67645 12.3944 16.0516
1634 3 9.45511 11.3729 17.9619
411 2 6.31152 12.4323 14.872
1108 2 8.89962 12.67 17.3638
1477 1 5.94265 14.0455 16.7931
1604 2 12.5741 10.8029 17.2161
1024 1 9.44811 10.9382 15.9012
975 3 13.8773 10.7107 16.3335
1547 1 12.173 11.7349 15.1087
1663 2 13.7104 12.162 17.0514
496 2 10.4413 12.3504 18.1452
890 2 10.6454 13.9236 14.368
676 3 26.856 9.77995 26.6677
851 3 14.5177 9.32286 16.173
568 1 16.3507 10.1115 17.3921
1767 3 18.5223 13.1257 15.7449
392 1 15.5999 12.4463 15.7105
1800 1 17.6147 10.82 15.0671
1189 3 16.5855 12.4637 17.6754
430 3 18.3331 10.0762 17.1051
723 2 15.085 12.1612 17.8563
1208 3 14.7614 10.919 18.6514
1689 3 25.8525 10.0955 24.1084
171 2 21.7147 13.8323 24.525
1350 2 19.7985 10.0648 17.5067
1952 1 18.9784 12.0299 17.4348
1451 2 20.8713 10.6027 16.3952
1397 2 20.889 9.96267 14.9398
1615 3 21.792 13.1291 14.3051
857 3 22.2099 11.1455 16.9696
51 1 22.8375 12.847 18.8199
15 1 21.7628 13.8626 16.2386
1641 1 23.5693 11.9159 15.4279
1968 1 22.0124 10.1013 18.5721
331 2 25.3972 13.7488 17.1122
1106 2 23.9901 9.51572 16.0005
819 2 27.894 11.6946 17.4189
1772 1 24.54 11.1277 17.474
1958 3 26.3406 11.3613 17.7952
341 1 26.3627 9.99233 16.0073
1132 3 23.9713 13.3443 16.6609
528 1 3.11291 1.50808 19.8945
1941 2 3.08391 3.10262 21.648
1450 1 28.2012 4.87616 19.7723
547 2 1.95712 1.66955 22.3566
61 2 4.29912 3.70549 22.8446
1440 2 2.32445 4.06351 20.4146
81 1 0.793299 3.71457 22.6582
848 1 0.435093 1.96646 20.4311
1243 2 -0.0743151 1.11639 22.5962
36 2 9.19456 4.10042 19.8258
1683 1 7.07848 2.54503 19.0715
1175 2 5.86925 1.99476 21.1126
1813 1 6.16457 2.15662 23.4287
559 1 7.406 0.320398 21.296
498 2 7.07316 3.27173 21.5415
598 2 5.40076 0.975226 20.0748
1173 3 8.52261 4.39844 21.3207
1045 1 8.68305 3.35514 23.3025
710 3 25.5961 13.2681 24.1901
1357 2 9.19409 2.75999 21.2445
1832 2 8.91641 1.607 20.089
707 1 4.9211 3.97152 20.3213
1306 1 10.4352 0.569386 21.5957
1712 1 12.4616 2.91623 19.7355
1126 1 12.4747 4.43395 23.7032
1609 2 13.4936 0.43759 19.3633
443 1 14.1006 4.68678 21.4938
733 2 10.7415 2.40915 22.7053
309 2 18.6594 3.81598 19.5576
1781 2 14.5694 2.07998 18.7984
993 2 14.1667 2.00586 20.5309
1313 1 15.6603 0.828616 22.3824
74 1 17.2427 1.86858 19.1952
898 1 17.2243 2.15876 22.9434
2032 3 18.6474 3.71067 23.3672
1178 3 18.851 0.511103 19.3995
1681 2 15.3279 2.6284 21.6329
616 2 16.2216 3.85798 20.312
69 2 17.8644 0.476801 20.8854
24 2 22.3236 0.258484 20.1889
298 1 22.5816 3.05453 18.79
1670 2 23.1582 1.87094 23.4802
475 1 19.9656 3.14316 21.7282
1728 2 21.5317 1.7564 20.6512
400 3 21.6869 2.25951 22.4191
905 1 22.937 4.06671 22.084
567 3 22.9684 0.792699 19.1463
1365 2 20.4527 1.25789 23.2819
1688 2 26.4315 0.069585 19.5389
1966 2 25.8678 0.800716 21.2207
1775 2 27.0103 1.58823 21.8725
1632 1 23.7595 0.753391 21.4436
250 2 27.2839 3.52139 21.4819
539 3 24.6034 2.57218 21.2934
990 3 26.4571 4.12955 20.2413
1815 1 26.2504 2.33492 19.6602
19 1 25.651 2.40717 23.1747
5 2 25.0636 3.84906 20.6658
982 3 0.0558391 5.65143 23.3057
1595 2 2.54699 5.51248 19.6204
506 3 3.81078 5.55726 22.8592
222 1 2.21128 7.67203 19.2131
1635 1 1.77593 5.79549 21.7423
845 3 2.13179 8.09858 21.8566
1314 2 28.1518 7.18992 20.053
1149 3 3.26888 8.63271 21.5294
1027 2 5.69116 5.82032 23.6752
656 1 4.39073 6.96965 21.3696
815 1 7.88928 6.05123 22.255
1351 2 7.19822 4.85554 20.4841
2043 1 6.60803 8.81024 20.6392
627 3 5.97833 5.67671 20.4445
892 1 5.54496 8.23897 23.8404
485 2 10.9069 4.74962 20.1428
1839 2 11.76 4.61021 21.5297
1033 3 9.90397 5.50697 19.3969
420 3 13.694 7.10261 20.2917
391 1 11.6241 6.60359 20.5242
691 2 12.9458 8.23737 19.599
580 2 11.6682 6.38019 22.5861
288 3 16.3775 8.1066 18.9501
937 1 17.313 4.92375 22.6082
1034 2 15.2642 6.30414 22.6413
1919 1 17.6719 5.92259 19.1027
137 1 15.9132 7.63983 20.9343
702 2 18.2438 7.75167 22.4965
1982 3 18.152 7.74638 20.7489
357 1 18.5828 8.75186 19.0434
876 3 21.2519 5.02933 20.0382
1385 2 21.2832 7.76245 18.9301
426 3 21.4377 5.35632 21.4137
1384 2 19.654 5.05472 20.1514
1559 3 21.3467 8.72541 20.2746
849 1 22.8733 6.54333 20.2991
1530 1 20.112 7.07129 21.3517
1759 2 21.9969 8.31129 21.8418
1181 3 23.4065 8.74908 22.4213
488 2 23.2382 8.87 20.0224
1116 2 20.4955 8.39388 23.1495
1819 1 22.0871 6.79442 23.3659
1228 1 26.4933 5.03604 22.773
1726 2 26.5712 6.53876 19.8843
1585 2 25.5566 6.53553 21.2836
879 1 0.0785584 8.16674 21.8431
1270 3 24.7719 5.35872 21.8606
840 1 24.8274 7.86959 23.0024
936 2 28.2801 8.65161 19.1545
1690 2 2.88099 11.3164 23.2638
1043 3 1.81954 12.6104 22.6362
1857 1 2.23315 13.487 20.5543
1023 1 4.37089 10.1814 20.5678
903 3 4.00107 11.0645 22.3736
47 1 3.85706 13.6216 22.7121
1581 2 0.495834 13.5784 21.3709
693 1 6.03168 12.6862 19.069
896 3 7.87445 9.76947 22.4444
385 3 6.52876 9.74697 22.8256
604 3 4.78307 13.0634 21.013
642 2 8.29666 11.0913 19.4956
314 3 5.04001 11.843 20.4356
1307 1 6.36042 11.7225 22.1167
99 2 7.85304 12.3863 20.5516
1651 1 12.7939 11.6169 19.5302
1010 1 10.9313 10.1374 19.0611
756 1 13.2828 9.23275 21.4079
961 1 9.54045 11.2061 21.8157
401 3 11.6729 10.8092 21.587
113 1 12.2295 13.314 22.355
1197 3 9.56289 12.7621 20.6275
1103 3 13.5597 13.201 20.5789
979 2 13.961 12.0196 23.5611
1366 3 10.5601 12.3588 23.5574
188 1 12.2089 10.6494 23.8368
1373 2 12.6589 13.9684 19.3165
1998 2 16.4019 14.1399 20.3886
1636 2 14.5863 10.2693 22.9353
1694 3 15.1776 10.0176 21.5426
920 1 15.9558 11.6828 20.3172
1447 3 17.9294 11.9604 20.2726
885 2 17.3789 13.1063 19.4029
789 1 18.037 10.2471 21.9289
1212 2 14.9057 13.7435 20.974
1135 1 16.1979 13.0867 23.0687
141 1 18.5564 14.0 21.3643
1427 2 20.5537 13.0843 18.8042
1903 2 20.5629 12.7325 20.2644
1298 2 19.3642 11.4475 20.8729
640 3 22.8522 12.3827 21.9
231 2 23.5254 11.6856 20.7529
1003 1 21.2514 12.3965 23.1421
1849 2 20.1044 9.93457 20.6922
2036 2 20.0433 10.1563 22.8364
1188 3 23.5787 10.64 19.6674
1885 2 23.7385 13.2824 20.6968
835 2 28.04 12.2012 19.0318
44 2 27.6692 10.2184 19.0341
2009 1 25.5631 12.0822 19.5632
1911 3 27.7596 9.99708 21.2202
1466 2 27.6257 11.5255 21.2797
2011 3 26.0043 9.59603 22.6708
527 1 24.5438 11.8432 22.9712
1398 2 26.66 12.7005 21.7394
942 1 25.0089 9.59266 21.0163
554 2 0.116032 0.453246 24.3138
956 1 2.37651 3.56615 27.349
208 2 4.15708 0.781917 25.5152
1500 1 1.93045 1.79419 24.244
109 3 1.32391 3.44168 25.3837
1965 2 0.410621 3.3627 26.8568
441 1 3.55451 0.404532 27.8055
53 1 27.8169 13.41 23.5233
1727 2 5.22724 -0.0509554 26.1635
1552 3 4.90264 3.86601 24.2663
371 2 7.36804 0.205751 27.3632
1009 1 9.3034 0.736956 24.0445
258 2 7.38348 0.970458 24.9239
633 3 7.8585 2.49431 24.9454
1335 1 5.42658 2.42183 26.1329
1662 2 6.67739 1.94488 27.6466
1584 2 5.90593 0.528681 27.7338
1510 2 9.00097 2.3178 28.1781
63 1 6.60864 4.503 25.0699
1376 2 5.23786 3.99211 27.9413
1618 2 10.0444 0.362741 26.6464
695 2 14.0735 1.10073 25.0674
146 2 11.9643 0.845824 24.7731
1172 1 11.0552 2.58669 25.6525
1237 2 12.9956 3.8744 26.3675
1608 3 10.3973 1.53083 27.6922
97 3 13.2678 2.99588 27.6674
1379 2 10.1831 4.48323 26.8679
1359 2 10.0642 4.64605 25.1783
360 3 15.2749 1.33503 24.2323
404 1 14.6309 3.37023 24.3522
1072 2 17.0878 0.464025 27.4968
791 3 15.7816 0.150663 24.9531
105 1 18.1594 2.12941 25.6176
1529 1 14.8999 1.55299 26.9759
1675 3 18.8767 0.280252 26.9849
718 2 15.9551 4.4178 25.7421
1262 2 17.1093 3.88573 24.1584
944 2 17.1095 4.95435 27.4193
875 2 18.8732 0.277323 23.9357
1105 2 23.0823 1.71845 25.5943
1499 2 19.9637 3.38887 27.5346
1713 1 20.6335 3.59868 23.9476
1439 1 20.6147 0.592054 25.8791
827 3 19.916 2.92353 25.8426
1812 1 21.7194 3.40887 26.5129
1444 3 22.6306 2.66784 24.6573
264 2 22.4174 1.00715 26.934
7 2 21.4041 0.838461 28.2281
2029 3 22.7111 4.20962 28.2848
1278 3 26.0087 4.10568 24.6147
987 3 25.7926 1.00406 24.7782
2042 2 27.1831 0.391882 25.3008
997 1 27.804 4.12183 25.0697
228 2 27.426 2.23319 26.5966
2035 2 24.7447 4.73196 25.1289
884 1 25.0237 2.50135 25.7883
330 3 26.5692 2.42702 28.0323
172 2 25.109 2.30254 28.2951
34 1 2.72246 4.85513 24.88
108 1 1.75788 8.95437 23.9179
1382 1 4.3105 6.79097 26.6774
1089 3 1.46706 6.09637 26.6567
82 3 2.5387 5.84318 27.8353
499 2 3.47467 7.7498 24.6153
1242 2 4.31989 6.31347 24.3343
1599 2 2.55471 9.11357 25.7721
1564 2 4.2575 8.76897 25.3818
297 1 28.0932 7.10075 26.5474
1948 1 2.05904 7.94584 27.9391
1725 3 8.61985 5.296 24.6336
579 1 7.69978 4.66162 27.6124
461 1 9.27701 8.80143 24.0335
8 3 7.84614 6.80334 28.0537
648 3 8.56321 9.51266 26.5725
1959 2 10.247 5.94561 23.7239
1901 2 10.9388 7.38166 23.68
274 2 11.6503 4.59296 25.7301
1128 1 9.74558 6.87391 26.2295
805 2 11.7749 8.76734 24.2014
425 2 11.5588 5.28754 27.2279
388 1 12.8676 6.42526 25.5191
237 2 11.8338 7.14567 27.3487
1162 1 13.1348 8.85502 26.077
1409 1 16.2365 8.29897 23.8642
1936 1 14.7474 4.62404 27.7256
562 2 13.9903 7.36978 27.3737
1979 2 15.9612 5.25403 24.0205
1778 2 14.8347 6.45029 24.1111
1617 3 14.3897 7.86781 24.6099
1714 1 16.1951 6.63824 25.9725
624 2 18.9408 7.84938 26.5204
1156 3 18.4005 6.60289 25.7729
120 1 18.9352 4.68371 26.135
236 2 17.4629 9.07806 26.5606
1850 1 3.33664 13.8908 25.9852
373 3 23.2477 9.08579 27.0097
877 2 22.7824 4.6061 24.6761
1548 1 19.1513 6.23539 23.7258
1022 2 23.2437 7.75834 26.4725
1472 1 21.1521 9.47029 26.7738
844 3 21.3111 5.40319 24.5302
709 2 21.3106 5.76731 26.1123
1960 3 22.238 6.48554 27.1033
1155 3 20.8791 8.35628 24.7325
1446 3 18.9276 9.18806 27.0372
1899 1 27.3544 4.81325 28.1159
717 3 0.0245928 7.55602 24.0906
1821 2 26.9692 7.06661 23.9053
1916 1 23.9139 5.53201 26.8557
2037 3 23.6868 7.24605 25.179