# LAMMPS data file written by OVITO Basic 3.7.11
2048 atoms
3 atom types
-0.1288855405 28.4089836677 xlo xhi
-0.1288855405 28.4089836677 ylo yhi
-0.1288855405 28.4089836677 zlo zhi

Masses
 
            1   12.01100000             # C
            2   10.81000000             # B
            3   47.86700000             # Ti

Atoms  # atomic

1059 3 3.98265 2.38834 0.466168
1437 3 1.34325 1.11392 3.03509
1930 1 2.70638 0.812984 1.39151
753 1 0.41917 2.86401 0.601779
337 1 4.38343 3.2903 2.65715
198 2 0.0450839 1.36313 3.65443
1064 2 1.84779 3.35341 2.60545
440 3 0.264023 3.33903 2.71743
1961 1 27.2991 0.244184 0.600319
1613 2 2.69656 3.16356 1.27132
668 1 7.49883 2.42835 3.96787
158 2 5.26801 2.98307 4.56187
648 3 8.18052 -0.10707 1.07343
894 2 7.53333 3.9039 1.9549
1065 3 9.1628 3.9851 2.04261
1384 2 5.99348 4.6405 2.24573
579 1 9.09052 1.41559 1.96044
425 1 5.61038 1.79167 0.474495
1548 1 11.4359 3.30147 0.969862
1592 2 11.4396 1.20415 3.20397
1714 1 11.998 -0.0843335 1.28967
573 3 12.0691 2.5267 2.37807
43 1 10.634 3.09302 3.94101
1458 2 13.3569 1.65375 1.87509
1702 2 10.8721 1.21515 0.372249
802 1 26.862 13.7721 12.9077
825 1 15.7185 1.3512 2.72058
322 2 17.1454 3.14379 3.80402
283 2 16.4385 4.60687 4.03144
202 3 15.3023 0.480769 4.51755
1184 2 14.8283 9.86287 0.606083
169 3 16.4969 4.21451 1.5561
1862 2 17.2039 3.05269 2.0823
1955 3 15.7329 0.711092 0.582769
595 1 18.8566 3.53508 0.350572
1618 2 18.8423 3.59653 3.59155
1646 1 18.8988 1.55895 2.91315
708 2 21.4119 2.10222 3.14851
1863 1 23.7563 1.94333 2.59167
315 3 22.0318 3.60123 4.06044
197 2 20.5294 3.49518 3.23285
1425 1 21.9878 3.54533 1.53206
1111 2 23.4426 3.69626 3.96998
412 2 20.7837 0.131547 3.31436
927 1 20.6798 0.683483 0.179812
120 1 24.9089 3.72196 0.443208
844 3 24.6303 2.26169 4.5472
1541 3 26.1664 3.63313 2.26824
800 1 26.3397 1.49708 2.90818
1830 2 27.5787 4.11816 2.15811
1369 1 25.6076 4.40656 4.33878
262 2 23.3352 1.70682 0.140519
363 1 0.19976 4.77842 4.01681
1660 1 2.41127 5.57813 2.22117
1996 1 1.71752 8.41872 3.13971
302 1 0.238568 6.29481 0.67321
538 2 2.87099 7.35764 0.985879
1652 1 4.35131 7.86842 2.99999
655 3 4.53296 9.01916 0.83742
1248 3 3.33909 8.23956 4.65904
109 3 1.73753 4.56431 0.363134
353 2 1.07999 8.61433 0.182216
2000 2 4.62511 5.48601 2.47559
1931 3 6.00665 6.39096 2.528
1589 3 8.53929 7.53856 1.65367
1338 1 8.36714 6.09584 2.94123
63 1 5.92166 7.22188 0.598661
207 1 9.12248 8.76571 4.01955
619 3 7.38337 8.85643 4.45777
661 3 8.33772 8.00761 0.398011
1758 3 11.7379 6.5894 0.65959
739 2 12.7006 8.17966 4.10986
1630 1 10.6806 6.95989 3.03815
145 3 11.5038 9.21047 4.15216
570 2 11.8243 8.35836 1.65039
951 1 13.789 6.67696 2.05438
725 2 11.0519 9.52509 2.456
928 3 13.1707 6.82542 4.40645
74 1 9.77565 6.14816 0.186391
966 2 15.7747 5.36852 1.29253
221 1 17.9921 5.11969 2.45959
1271 2 15.8049 6.05669 2.73786
737 1 16.3815 7.71886 0.835472
885 2 18.259 9.43907 2.366
375 3 17.5143 8.23371 2.74229
264 2 17.2016 5.34836 0.302811
572 2 19.0845 7.53511 0.201135
749 2 18.4787 6.12623 0.689175
26 1 19.9262 7.01247 2.20291
580 2 19.9687 5.04987 0.846845
309 2 21.8467 6.82712 0.591874
1497 1 20.9947 5.43556 4.32048
585 3 20.952 8.04525 0.546128
1229 2 22.5479 6.91196 2.46326
558 2 21.7646 7.43716 3.70372
1776 2 22.9329 6.42676 4.09295
1063 2 27.9399 14.077 3.12815
827 3 20.3859 7.62042 4.19096
564 2 -0.0879803 7.15646 2.90302
1669 2 23.4154 5.61922 1.24195
1474 3 27.3983 6.38463 3.98483
1343 2 26.5602 7.53936 3.1641
1415 1 26.2128 5.6242 2.04863
1005 3 25.6597 8.0593 2.17961
1363 2 24.0403 5.25212 3.19727
1791 1 24.0234 8.35911 3.74147
1819 1 24.1087 7.69526 0.999645
1186 3 26.711 5.68585 -0.129834
941 2 13.9989 13.6566 11.6708
518 1 2.76207 10.3441 0.815566
1174 2 2.30289 10.3923 4.33398
934 3 1.53503 10.332 2.95139
472 1 5.63328 10.6956 2.85712
679 3 0.899622 11.0896 2.07508
841 1 1.48897 12.6563 3.32489
1904 2 2.18488 13.8323 0.877365
1034 2 3.44815 12.8885 1.22441
1978 1 0.379338 12.5787 0.294618
1435 1 23.7488 13.7951 12.8373
1388 2 5.70543 9.76044 0.122175
1254 2 5.94733 9.58394 4.799
1697 2 6.4844 12.4334 4.29807
1986 2 6.72221 13.3622 1.42605
710 3 6.99112 13.5929 3.32325
1912 1 7.96081 11.0678 1.39279
1197 3 8.09222 13.095 0.898232
1782 2 8.38285 12.8316 4.03573
119 2 9.98971 10.8108 3.79687
921 2 4.86462 13.7958 1.0453
1759 2 13.4201 10.4467 -0.148769
897 1 13.7386 9.67322 2.39942
420 3 10.0354 10.8767 2.32767
962 1 10.1082 12.9954 2.43545
1470 3 13.1178 11.4773 3.02861
560 1 13.108 12.6715 1.22387
704 2 12.2815 12.862 3.50337
1156 3 11.3559 12.7515 0.325767
1496 1 11.0411 10.1749 0.220307
1249 1 17.5188 13.975 0.350844
1301 2 15.2711 12.6391 0.0815275
1047 2 14.1119 10.935 4.51467
1409 1 17.7539 11.719 2.47461
743 2 18.2002 11.9066 -0.0837275
837 1 14.4741 13.0154 3.52565
1140 2 15.923 11.0768 4.05157
1362 2 15.8147 13.6533 1.55675
599 3 9.82243 7.2533 14.1107
1100 3 19.3717 10.4573 3.81609
1567 2 19.4661 10.7026 2.34494
121 1 21.9466 9.2781 1.7843
1232 3 21.9198 11.0716 0.20692
926 1 20.3621 12.7572 0.717045
1244 1 23.1378 12.4186 3.16713
1238 1 20.4554 12.215 3.91832
584 3 23.0389 11.0083 1.43332
1321 2 19.7509 9.10809 3.22955
1837 2 26.2712 13.0071 0.494421
555 2 23.6043 11.9639 0.243726
589 1 27.6173 9.81648 3.91286
1620 1 27.4554 12.8158 4.84586
940 2 26.8264 13.2586 2.47667
201 3 26.1785 11.946 3.26087
260 1 25.0914 10.3318 1.64862
351 3 24.9548 11.6339 3.18974
9 2 3.17119 0.44042 5.95566
168 1 2.37659 2.08914 4.45828
689 1 1.52404 1.59043 7.63255
1934 3 3.2914 2.69737 8.24119
687 2 3.22129 2.57541 6.64095
1360 3 1.09847 3.31801 5.39153
423 3 4.43448 2.51957 5.74064
280 3 -0.0153157 3.07502 8.77912
1835 3 4.71844 3.00095 8.46231
1453 3 7.32111 1.10449 5.37266
1183 1 5.53212 0.602343 4.37268
1292 1 4.72223 1.14171 7.64528
1356 2 9.12485 4.6235 4.1643
1640 1 8.927 -0.0399869 6.4178
1749 1 6.1804 3.34395 6.54444
245 2 7.97917 3.52456 8.05622
349 3 6.9298 0.819114 7.04178
328 1 6.54677 4.6856 8.70109
86 1 7.69111 1.60724 8.66885
414 2 9.17446 3.5448 9.58356
438 3 9.07115 0.0458138 8.89795
1464 1 14.252 2.70076 4.39813
846 2 11.6088 0.592897 4.75824
603 1 9.94654 3.03589 7.2067
155 1 12.9178 1.70753 6.65018
673 3 10.7486 1.48557 5.66383
360 3 11.8038 2.18894 8.41925
1507 3 14.0526 3.51505 6.1488
1481 2 12.3041 4.33852 6.56826
118 1 13.5129 3.64115 8.58324
195 2 14.9369 0.978778 5.95717
617 1 16.5963 2.07835 5.37823
1875 1 15.1163 1.18268 8.26946
258 2 16.262 2.69557 7.60772
611 3 17.8633 0.380258 6.20063
681 1 18.2746 2.00173 7.46983
1891 2 15.8488 3.65565 9.30392
1269 3 19.8668 3.82685 6.92022
150 3 20.4417 0.642038 4.71458
1859 1 22.7641 1.71319 5.82562
1353 1 20.2972 2.55447 5.36676
2014 2 22.3572 3.83801 6.51145
1328 3 22.5476 1.96672 8.10954
636 2 21.077 4.57188 6.29301
1428 2 21.1126 1.60091 8.38128
891 3 20.6173 4.3311 8.10652
911 2 23.3719 4.07033 9.79572
1296 2 27.8195 0.505209 4.80917
972 1 25.3227 0.178375 5.01798
1645 2 0.170967 -0.00928175 6.18114
1118 1 23.8034 0.421397 8.21367
1133 1 27.4425 0.267048 9.70787
1756 2 25.7896 2.46944 5.92614
1007 1 27.8889 2.03915 6.42571
210 1 24.5741 3.11522 8.02042
18 2 23.6851 4.00172 6.01865
1988 3 25.797 1.33286 6.76832
163 3 27.1571 3.07873 9.34311
361 2 26.3722 4.47683 8.9539
1258 2 26.3119 0.363475 7.70092
451 1 3.16482 4.91661 8.37907
1487 1 0.301354 4.5413 6.98436
182 2 1.37996 6.80593 6.16937
1195 3 1.86816 6.83027 7.59485
1611 1 3.50973 7.17841 6.12928
1048 1 -0.0999559 8.35748 7.66354
1793 2 1.98058 8.95372 5.56988
978 2 0.201635 8.47811 5.35748
600 1 0.349626 6.30935 9.73706
754 1 5.69393 5.65808 4.44854
829 3 7.74254 4.39231 4.8837
628 1 7.16198 8.35835 6.4156
290 2 4.84487 5.12928 6.88932
1720 2 4.75853 6.46673 8.38112
367 1 8.54118 5.22701 6.29562
867 2 5.95204 6.59203 7.38779
1848 1 5.60762 8.78902 8.82917
90 2 9.24913 4.81814 8.52495
1950 2 9.58452 7.81171 7.61821
1342 2 4.67305 8.51247 5.21618
698 2 8.75956 9.25665 7.85836
279 2 10.9348 4.54158 5.68501
482 2 9.32547 6.47194 8.33263
1757 3 10.0006 5.69284 4.92324
1459 2 14.0121 8.20671 7.47708
1621 1 11.5141 6.71385 5.98896
1741 2 13.0474 7.32612 8.44275
624 2 13.4133 5.5646 5.67474
1766 3 13.4045 6.82687 7.12483
2047 2 10.8229 9.91279 6.73026
455 2 9.8398 8.74016 6.18878
1120 2 12.1758 4.80952 9.98159
1410 1 15.0374 7.46259 4.39034
2029 3 16.5806 6.05039 4.27163
682 1 15.6839 5.04102 6.80674
1809 1 16.4079 7.28714 8.26033
186 3 14.9785 7.12858 6.74079
1946 1 18.4512 4.8856 5.32684
272 1 18.6552 7.69325 4.94389
1686 3 18.4719 6.57081 6.83588
65 1 18.2513 4.70793 8.31104
751 2 15.6445 8.48451 6.61862
359 2 15.0201 9.78283 8.25967
762 3 16.1425 5.02117 8.63966
1633 2 21.5687 7.43018 5.33878
1445 1 23.446 5.97543 6.49179
1687 3 21.517 6.51861 9.48969
1654 1 20.3605 6.60906 7.52822
295 3 22.5372 8.25595 6.10151
1089 3 19.9845 8.52114 8.75095
973 1 22.2972 8.67148 8.87869
984 2 22.3073 4.23719 8.39975
902 1 20.035 9.38826 6.94483
1538 1 26.6935 7.34529 5.74257
1051 2 25.4042 5.26244 6.32728
1957 2 26.6691 7.23986 8.42133
1247 3 24.5864 6.42102 4.92375
1181 3 23.3704 7.99476 7.33495
1688 2 26.631 5.61672 7.56255
995 1 24.6774 5.44347 8.90935
1534 2 24.3487 8.42365 8.49022
421 2 3.66351 10.2885 8.72984
1067 1 3.91326 10.3059 6.08425
1268 1 1.40714 11.7701 6.33036
1461 3 1.5185 12.9695 8.55928
1107 2 2.80001 13.0719 9.0789
770 2 0.746177 9.91074 5.12469
1604 2 4.01214 12.255 8.44725
1333 3 0.284529 13.954 5.90496
1939 2 25.4016 12.7364 11.6279
1599 2 5.22793 10.8027 7.70699
45 3 7.31895 10.0566 7.64203
1531 3 9.22608 13.7226 7.12106
508 3 5.81053 11.1643 4.93747
1400 1 5.86216 12.8741 6.71285
715 2 6.85473 11.2097 8.86814
930 3 7.77611 13.4981 6.51026
561 2 6.08938 12.6994 8.98122
1634 1 8.34919 11.0408 6.19265
1277 2 12.2054 13.4866 4.87612
1090 2 10.8054 10.5514 5.12732
223 1 10.0502 12.7967 5.41033
1294 3 13.5219 13.8592 5.72304
236 2 11.0488 11.4887 6.84748
1706 2 11.8327 10.4911 8.20248
740 1 12.7198 12.6704 7.25725
167 1 13.4902 9.96394 6.52232
723 2 12.8236 13.2952 9.37096
1502 1 10.606 12.7249 9.52061
618 1 18.1939 12.5745 5.99258
1525 3 14.2349 12.443 5.81153
915 2 14.8944 9.57849 4.55709
863 1 14.8466 11.5619 8.83728
1784 1 16.8718 10.1568 6.57578
557 2 16.6327 12.4578 7.72273
143 2 16.3181 14.1209 6.93335
858 2 18.3526 12.8561 8.25551
552 2 15.6931 12.6045 6.12315
2021 2 18.809 10.8662 5.1663
106 3 20.1107 13.6654 5.39994
576 3 22.4495 11.6901 5.04619
1932 2 23.0149 12.9906 5.6388
1350 2 18.5931 8.90028 8.58175
758 1 21.0005 12.1875 6.41281
1699 2 21.296 12.3522 8.73967
308 2 21.6128 10.888 8.06491
752 1 23.1734 13.2185 8.07149
1853 1 26.3609 9.81635 7.61816
32 2 23.3463 10.6126 7.79117
123 3 28.4037 11.1465 5.44469
1330 2 25.8513 12.2277 7.19971
1762 2 0.0517431 10.8518 8.41045
1840 1 24.7097 11.3702 5.29571
785 1 27.7596 13.5013 8.37075
80 3 27.3442 11.4553 7.9031
1374 2 23.8734 9.38788 6.61787
874 3 24.6652 11.5133 8.06804
1999 2 27.3014 11.2687 6.26946
22 1 1.85636 1.00246 13.6941
1083 2 1.88923 3.28159 12.9081
239 2 2.01708 2.10678 11.9153
183 2 1.23088 0.521335 11.3559
1215 2 4.61121 4.03645 9.96783
989 1 4.16876 2.70137 12.5254
467 1 3.00054 0.789264 9.89711
819 2 3.72037 -0.129671 12.3134
480 1 6.034 0.690644 11.0746
1396 1 8.60514 3.04718 12.4068
1648 2 5.95042 3.5192 12.8462
1177 2 8.12749 4.40139 10.3663
130 1 9.22609 0.0676469 12.5353
1910 3 7.91483 0.800989 11.2589
1351 2 4.48144 0.84538 13.5337
1407 1 6.65685 1.12176 13.4034
1026 2 12.9879 2.07041 13.701
1598 1 10.2805 1.38686 9.99032
1864 1 12.4196 2.90843 11.7498
204 2 11.663 2.96516 9.75841
812 2 11.0036 2.0084 13.3556
1134 1 12.897 1.03898 9.96818
1683 2 11.7243 1.12449 12.347
1667 2 13.4904 1.01843 12.4329
250 2 14.7966 2.68664 10.1775
368 2 14.2164 4.71761 12.2076
801 1 16.8396 2.37431 10.9001
548 1 17.8122 0.309038 13.3048
156 2 14.6027 1.96955 11.6286
1597 3 15.2893 2.90162 12.7524
1629 2 15.9439 0.40727 10.0742
1753 3 18.3654 4.09159 11.8626
1545 2 20.0393 0.256656 9.13241
986 2 18.467 2.2921 12.7942
778 1 22.9091 1.7018 10.4137
985 1 20.574 0.387839 11.5322
1842 1 21.5028 3.91766 12.8113
847 1 20.1891 3.07057 10.0447
1603 3 21.3064 2.4785 11.4843
312 2 26.0744 10.9166 11.8552
913 2 19.8531 4.34981 11.6039
1016 2 20.0116 2.1857 13.9184
525 1 22.5946 1.61878 13.5803
1984 3 24.226 1.91737 12.1674
509 2 25.4071 4.01059 12.9555
1801 1 -0.0247423 2.42164 11.4281
1725 3 28.0075 2.02219 13.6615
1641 1 25.1868 3.14759 10.5582
1475 2 24.9834 0.746771 11.3063
1202 3 25.604 1.04025 9.88875
291 2 26.3119 5.17842 12.1195
772 2 23.8696 3.11025 13.3585
1086 2 27.8159 0.507586 13.6781
1449 1 25.4475 1.18498 13.8778
1421 3 21.6171 14.0828 13.9034
980 1 3.06426 7.99801 9.04749
39 3 0.984272 8.08497 10.0894
1308 1 2.8913 7.34114 12.7473
1506 2 2.89061 4.81922 10.4878
1011 2 -0.0620061 8.4482 12.5175
830 2 0.818967 4.92437 12.4149
1557 3 2.01137 5.60732 11.7238
1088 3 1.94337 8.2121 10.9933
695 2 2.64315 9.68041 13.9748
1887 3 5.59027 6.32282 9.87361
547 2 4.57348 5.48607 11.6919
1483 2 4.67391 4.77314 13.4839
69 2 4.73584 7.02089 10.9085
371 2 5.15874 6.64967 12.6154
1696 2 7.57135 8.28688 10.6339
722 2 8.41052 7.24006 9.68804
36 2 8.91932 8.81809 13.2346
1216 1 5.96601 8.86084 12.5597
756 1 7.26485 6.10968 11.1986
1774 2 9.10779 8.10551 11.0962
253 2 9.05719 7.04074 12.3522
838 3 9.1979 5.12689 12.1895
726 2 6.63985 6.37799 13.3465
1080 1 10.8957 7.80954 9.33693
1267 1 14.2594 8.50804 9.79162
1028 1 10.0398 5.69957 10.3672
411 2 12.3535 7.62259 11.3455
586 1 11.0434 6.00095 12.8197
976 3 12.5653 6.58977 9.70771
177 2 13.6901 6.49033 12.0638
305 3 12.1917 7.93778 12.7866
1625 2 25.9718 14.0221 10.8205
2004 1 17.3773 4.74075 13.497
935 3 15.406 6.78464 11.0802
1103 3 15.3217 7.80334 14.0665
540 1 15.6508 8.34016 12.2969
769 2 16.553 6.65284 13.5393
1788 1 14.3814 5.43707 9.92573
1533 1 17.1563 5.52259 11.049
1314 2 18.0005 7.0459 13.1879
890 2 15.2091 6.12721 12.8523
1319 2 15.9741 9.67047 10.5128
1419 3 18.4644 6.40984 9.93254
1430 2 19.128 8.34856 13.0285
1466 2 20.0639 7.00407 9.69839
1962 1 17.8454 8.84114 10.6226
241 1 21.224 7.64471 11.4915
234 3 21.9794 6.14271 12.7547
1424 1 23.1734 8.8542 13.7648
1615 3 23.069 7.92891 11.6501
937 2 19.9779 5.46774 10.4224
596 2 22.9687 6.62551 9.97015
719 1 27.4832 9.44964 10.7556
943 1 24.9009 8.16959 10.3702
1890 1 24.2546 6.68256 12.9179
1544 3 27.8124 4.73472 11.8909
468 1 27.4555 6.60102 12.716
776 2 25.3082 8.56888 13.207
79 2 1.98124 11.0756 13.2482
2031 2 13.3759 13.49 13.2293
514 1 1.60042 10.4157 9.9601
313 1 2.82004 13.2458 13.5257
1605 1 0.790794 13.111 10.3922
1480 2 3.5683 13.2185 11.225
939 2 28.2389 11.2913 10.0075
1380 1 28.3239 10.6984 12.7401
983 2 1.82169 9.8251 12.5065
1000 1 20.2592 0.0566215 6.88056
1082 3 6.7471 9.61486 10.6749
2003 1 5.05424 11.171 10.5423
192 3 4.49177 12.6283 12.1492
224 2 7.80624 12.1298 9.72629
1681 2 8.55357 12.6605 10.9725
1405 2 1.72165 0.19959 5.31784
1290 1 8.86724 10.141 9.74455
1802 2 5.42687 13.3643 11.2103
626 3 8.67595 10.1045 13.4719
1097 3 8.78361 12.9931 13.8128
212 1 6.70254 11.7978 13.1618
1839 2 9.82973 13.4794 12.7817
289 2 11.1552 11.5767 14.0079
818 2 12.6709 11.5934 9.29956
248 3 11.5051 10.2981 9.63251
685 1 11.7257 12.4327 11.8412
1551 1 9.59309 11.4893 12.5071
1411 3 10.9494 10.7558 10.9402
115 1 12.3976 9.69107 11.5114
200 3 27.9861 0.210723 7.78647
1236 1 16.5908 13.9775 9.1081
1309 1 14.3447 11.2375 13.4324
543 1 17.4325 10.5085 8.83329
343 3 15.5933 13.7362 11.7015
2039 3 16.4089 10.482 12.0604
380 2 14.7917 10.5959 11.4423
1989 2 13.8198 11.6468 10.7782
878 2 18.7591 9.97753 13.7361
1855 1 17.326 12.2055 12.1759
449 2 17.3732 10.0454 13.0852
1935 2 14.9487 12.9747 10.5035
893 2 18.7773 12.9502 9.95377
1349 1 19.8089 11.1196 9.6146
955 3 22.1048 13.2533 11.698
924 3 19.5188 12.5324 11.2142
1900 2 22.7867 11.4757 13.702
267 1 20.7821 9.86395 13.6306
1914 2 23.1218 9.50873 11.014
1004 3 22.6809 13.6911 10.0999
638 2 19.6258 11.3305 11.9379
1968 1 21.9029 11.3942 11.2452
1799 3 20.2036 9.95739 11.4533
1259 1 20.1684 12.7216 13.6811
1769 2 24.5642 13.5598 9.9175
2011 3 25.9711 9.83101 12.7626
1010 1 8.58015 5.44796 13.9303
432 1 24.5261 10.955 9.99601
938 2 27.1382 12.0466 11.4034
872 1 4.97375 13.6165 3.20461
963 2 1.1226 8.01491 13.9042
1265 2 21.3801 13.5122 2.58216
255 2 7.93255 -0.0075297 4.24739
1709 1 11.2976 0.318327 7.79326
1521 2 2.95426 13.9285 4.60933
1871 2 23.102 -0.102772 12.3389
733 2 7.46067 13.7773 5.28848
1692 1 7.85157 14.0466 9.16015
1194 2 15.2559 3.57054 14.0139
656 1 25.0478 11.5616 14.1263
44 2 26.4271 4.78261 13.9601
1587 2 2.55242 8.40544 -0.0157081
435 1 17.4795 1.01618 -0.0473698
1772 1 0.798083 3.06784 15.5316
2034 2 2.58976 4.5557 15.9752
2037 3 2.58337 2.11375 17.2933
1668 2 2.89727 3.4555 14.5213
1145 1 3.02885 3.69608 18.3613
142 2 1.04772 2.5953 17.6032
738 2 1.71192 1.46623 18.5178
610 2 1.76106 5.04556 17.2252
1920 1 1.73073 0.39313 16.498
1402 2 5.33637 0.820968 14.8908
1787 3 6.40631 3.09399 17.9318
1306 1 7.42705 3.91511 16.053
1712 1 7.41525 1.00377 16.2226
629 3 6.97416 3.2281 14.1654
659 3 9.14541 2.5808 16.6544
1715 2 8.51348 2.91206 18.0879
1685 2 9.74164 1.30035 16.0757
767 2 8.86663 1.34313 14.4585
1951 1 14.2393 2.12641 17.2867
41 1 10.3789 3.5393 15.414
1310 3 13.0861 2.26397 15.1867
1501 1 11.736 0.584931 15.4206
1245 1 13.3553 4.21987 14.4399
191 2 12.4979 0.613882 19.0973
391 1 10.9005 2.53075 18.0719
1647 1 14.9487 0.880808 14.3848
1623 3 16.3676 1.04106 17.4949
72 2 15.4503 4.10606 15.8686
1141 2 17.4527 3.47999 15.9517
271 2 16.0834 2.69567 15.2597
1262 2 15.8191 1.18868 16.0665
849 1 18.4413 1.10399 16.3276
1077 2 14.3127 -0.0122562 28.2855
960 1 17.2671 3.03264 18.193
479 2 14.7183 3.18585 19.685
390 2 17.5249 2.08381 14.3614
1666 2 19.703 3.58494 17.7984
1237 2 19.4375 1.11637 18.3269
999 1 22.2248 3.49602 16.9119
1740 2 21.4075 1.0277 17.9578
1468 3 23.1951 3.64306 15.0431
808 2 21.0301 1.11024 16.305
1008 1 19.689 3.8712 15.6069
418 2 23.9856 2.08856 15.6536
314 3 20.2819 1.5243 15.1648
20 3 27.633 4.768 14.9367
370 3 23.8924 4.06978 17.9906
357 1 27.2532 3.7023 18.1074
1298 2 23.729 0.401081 15.4903
1792 2 28.2172 1.59172 16.8723
1952 1 25.8828 0.812471 16.3029
1889 1 25.2178 4.11682 15.8167
2045 1 23.9983 1.90756 18.1984
1586 2 3.29654 5.85082 16.5514
994 1 2.50878 6.96852 18.5846
717 3 -0.0199497 4.99876 17.0845
1922 1 0.600527 6.06675 15.1283
1896 2 3.0261 6.6408 14.9454
1881 2 4.8674 9.19793 17.8639
1942 2 4.53895 5.66805 17.8083
1494 1 3.14203 8.82357 16.0692
1885 2 1.9013 9.87251 17.8271
633 3 4.38876 0.179914 20.0617
734 3 4.55966 9.58747 14.6844
225 1 8.76987 5.39837 18.0593
816 1 5.2518 6.53751 15.457
464 2 9.13698 7.87615 16.9898
903 3 7.75281 7.1658 16.7664
1367 2 6.32243 5.95976 17.3592
1017 1 7.20398 8.5852 15.3026
728 1 23.0461 14.1288 20.4354
485 2 5.94637 4.3623 17.9937
461 2 6.3134 7.9074 17.5718
1168 3 6.40512 9.03625 18.5021
1394 2 6.19574 4.70005 14.3065
2048 1 11.1126 6.74366 15.6988
1037 3 10.922 4.87635 17.268
805 2 13.208 6.797 15.2325
1138 1 13.3514 8.83523 14.4631
588 2 12.22 4.21422 16.8865
387 2 12.7922 8.32403 16.5888
1255 2 20.2943 0.0736422 17.2993
1113 3 11.7149 7.80723 18.0348
693 1 14.5861 8.32374 19.0496
1726 2 9.93339 7.87127 18.6276
556 2 13.7597 4.6031 19.3017
300 2 17.8584 5.06571 15.809
1365 2 14.3137 5.81785 16.1796
969 1 17.3377 6.74796 17.0737
775 2 14.758 4.23158 17.5687
512 2 17.985 8.78199 18.0513
1998 2 14.7853 7.17967 15.2775
569 2 17.1191 8.85873 16.8109
910 1 17.009 8.32019 14.6754
1158 1 19.4989 6.1568 14.7184
1522 2 19.5087 7.33323 19.0734
1817 1 19.9003 10.0475 17.3963
392 1 21.2604 5.20488 18.7399
1320 2 19.2852 4.97188 16.924
1745 2 21.4521 8.20711 17.0852
1562 2 22.5873 7.52832 15.6988
243 2 20.7996 8.36833 15.7324
1639 1 22.287 5.56558 15.0479
7 2 20.657 5.9768 16.6597
460 2 22.1542 6.57133 17.0537
936 2 19.4183 8.58713 14.8187
93 2 22.7756 7.17906 18.4913
1593 1 0.314474 8.10212 16.5885
1800 1 17.815 0.00279728 24.4847
1270 3 24.029 7.56465 15.5556
1224 2 23.9128 6.78819 16.968
788 1 26.0633 6.76936 15.4095
526 2 24.9379 5.26377 17.4291
208 2 24.7843 6.82343 18.8489
522 3 27.2343 8.73275 18.7954
879 1 24.1012 8.75221 17.3384
1246 2 26.5844 8.76509 16.7254
1690 2 3.39372 10.1349 18.2718
1568 2 4.51646 10.8694 17.3637
1553 3 0.603118 9.9382 16.5814
1886 1 2.38295 11.8545 17.268
1043 3 3.83174 11.4052 18.9933
1700 2 0.402337 13.9727 14.8472
263 2 3.91408 13.683 15.4599
1628 2 0.57692 12.3049 18.2377
1234 2 28.0121 10.9244 15.9347
1596 1 5.00646 12.0213 15.1824
1536 2 6.4428 13.5566 14.9585
823 1 4.94412 13.019 18.1703
1472 1 6.50211 10.5463 16.8408
254 2 6.62389 13.0627 16.6458
185 2 8.26695 12.0843 17.3976
85 2 9.78922 12.6953 17.0647
699 2 8.57896 9.4336 16.3811
1 1 8.9168 11.3249 15.3728
1324 1 11.5174 13.8428 14.4706
235 3 10.0439 13.7168 17.9918
347 2 13.7266 12.4508 15.3939
1674 3 12.2378 10.1299 16.3336
437 1 13.4382 11.3007 17.1671
365 1 27.1927 9.16839 14.6785
434 2 12.2245 11.3654 15.3598
777 2 11.2746 10.0611 14.8786
1019 1 10.9543 9.56774 17.6927
1046 2 14.368 13.5469 18.1315
531 2 17.8088 13.8855 15.3592
1833 1 17.1098 11.4442 15.2432
946 1 15.6892 13.1761 16.2707
409 2 14.9266 11.4459 15.4541
568 1 16.7238 10.6967 18.9247
714 3 18.5388 11.8455 17.8209
179 3 17.6686 12.55 18.8383
100 1 22.1621 10.0095 16.1338
1958 3 20.1838 11.3572 15.2094
488 2 19.946 12.0511 16.7201
1144 2 21.7369 12.0901 18.3165
1642 1 22.0084 12.6423 15.599
1701 2 22.6013 10.776 18.1623
2044 3 25.6122 13.4355 15.3751
1673 2 25.6322 10.3919 16.2346
764 2 23.1697 12.3815 17.8499
331 2 27.9111 9.93758 17.5811
1347 2 24.1465 11.1089 16.4507
527 1 27.2078 12.4093 17.2528
463 2 0.110614 12.4805 14.7875
614 2 -0.181751 9.72778 19.3221
1981 2 27.5775 3.33246 14.2717
904 1 2.96446 1.663 20.2491
492 3 4.6488 1.17455 23.1607
1297 2 2.22661 3.11249 22.7218
228 2 0.704752 2.39933 20.045
400 3 1.07028 2.97531 21.6009
270 2 1.36596 4.34546 22.6005
240 2 24.209 11.2112 23.191
519 1 -0.130494 0.676459 21.7346
445 1 4.91863 3.23987 22.1993
506 3 4.31588 3.27591 19.9955
1662 2 5.07364 1.14809 21.324
1883 1 6.36 1.21809 18.9968
1876 2 7.20443 1.80796 21.2766
627 3 8.63475 0.826866 21.5888
1716 1 7.45896 4.17888 20.0477
1076 2 7.83142 3.37084 22.251
1163 1 8.8616 1.30441 19.5461
1050 2 5.14295 4.61672 24.1286
993 2 12.1346 3.39612 20.3889
352 2 12.787 4.235 21.976
1260 1 10.218 3.33483 21.5773
35 3 13.8726 0.519617 19.2903
1915 3 10.8674 0.79872 19.1306
1678 2 12.2558 0.860866 21.7388
141 2 13.1902 2.50809 19.5251
1693 2 11.1094 1.76333 20.4367
1313 1 9.17143 0.268937 23.3964
1492 2 16.4634 3.16836 20.5192
288 3 17.0873 1.92577 20.6381
219 3 16.9954 0.749192 21.4174
650 1 14.7629 1.20968 21.0751
773 1 20.2829 1.34829 22.2174
342 1 20.7625 2.72903 19.3156
783 2 23.2798 2.01154 20.6647
1416 2 22.6357 0.590188 21.5033
1559 3 22.3468 1.42266 19.0986
1499 2 22.3113 1.18818 23.4204
1117 1 22.5762 3.42974 22.2314
376 3 21.7665 3.98201 20.5097
1577 2 23.8667 12.6845 27.1899
226 2 24.3741 4.20184 23.6142
330 3 24.9171 4.72209 22.2654
1132 3 25.3407 0.50417 18.5442
1286 3 26.1991 0.962374 21.7698
1729 3 26.0806 2.06106 18.9337
1278 1 27.781 0.595429 18.8191
1281 3 26.4186 2.87399 20.137
602 1 24.2867 1.56159 22.5583
1242 2 26.7675 2.43021 21.5879
2018 2 26.5837 1.17845 23.2085
1223 1 24.866 4.42009 20.2998
1491 1 27.6382 4.76473 20.4036
796 1 28.1496 6.66346 18.5284
1969 2 1.289 8.50855 19.3266
1355 3 2.37418 7.27176 20.4651
1135 1 1.49333 8.38076 22.2034
990 1 3.81082 6.6651 21.9661
385 3 1.95251 5.59881 22.2507
1498 2 1.32106 6.48403 21.1101
1983 1 3.14465 9.33841 20.2921
1786 3 6.24824 5.48047 20.8957
496 2 5.25108 4.48953 20.1071
188 1 7.81694 5.38845 23.2854
1529 1 6.23552 7.72257 22.4295
1193 2 6.68639 8.52975 20.5938
1728 1 5.40402 6.75166 19.3948
1233 3 5.23837 8.99176 21.0911
146 2 9.65717 5.3719 20.1425
1307 1 9.00107 7.46145 21.2805
851 3 9.30565 5.43936 21.9077
401 3 9.30028 6.68852 19.4882
431 3 13.8922 6.11811 19.621
1397 2 11.47 7.8473 20.9081
1547 1 11.9404 5.97907 18.8577
920 1 10.9065 6.20714 22.4404
2043 1 13.9551 6.93156 21.9173
1511 3 12.6701 8.40791 20.9995
499 2 16.268 7.1247 21.5948
971 1 17.7569 5.37231 22.433
1825 1 15.8628 5.71827 19.5594
1188 3 15.4447 7.65221 20.5374
1061 3 19.2304 6.0972 20.1575
1341 3 18.7043 4.90919 20.4726
1560 1 17.6483 8.16279 20.599
1427 2 17.6475 10.208 22.4766
140 1 21.634 9.12275 19.4401
1352 2 17.8437 8.02468 22.6932
1768 3 22.729 5.1414 20.5781
791 3 21.2971 8.3201 21.3973
956 1 21.2413 6.29576 21.544
652 1 23.866 8.15759 20.655
470 1 20.7629 8.34236 23.4682
1960 3 26.0844 5.67739 18.8717
1948 1 26.8741 5.27872 22.9441
1892 3 28.333 6.32435 21.7509
304 3 28.2425 8.39664 23.6887
1023 1 26.291 7.29494 20.4647
1500 1 23.9447 6.35467 24.3791
1797 2 24.7883 6.40868 21.4492
1116 2 27.5463 7.63876 22.5637
1479 2 25.565 7.20181 22.9056
1513 2 25.3758 8.72241 22.1237
1594 2 0.981428 13.9623 18.2192
1110 2 0.0834342 9.30401 20.8336
968 1 1.68589 11.1571 19.7871
1903 2 2.60945 10.6998 21.9214
748 2 1.5209 12.3378 22.3779
1614 2 4.51367 12.1585 20.2628
1062 3 0.856246 13.7517 22.8656
1857 1 4.11503 9.47418 22.9759
1106 1 28.3095 10.8663 22.6842
398 3 2.02815 9.93467 23.0793
113 1 8.36104 13.0003 23.1989
621 1 4.14774 12.4298 22.7279
1490 1 6.96894 10.8697 20.5235
1025 1 8.55876 9.63516 18.7703
1561 1 8.12627 10.2508 22.5114
1189 3 6.00916 13.506 23.2744
544 3 8.83342 10.5848 20.5713
1664 2 8.13597 12.1474 21.2692
625 1 9.40816 12.3999 19.3875
1143 1 6.38007 14.0019 20.4096
612 2 9.83461 12.9455 21.6708
1804 1 10.854 10.0427 20.7159
1127 2 12.5888 12.4621 20.2796
1264 2 13.2774 9.91822 20.3141
1556 3 11.3453 12.6231 20.4637
443 1 12.2 12.654 22.6206
900 3 11.5641 10.4653 22.7524
1058 2 14.0628 13.5783 19.7918
491 2 14.0473 11.1565 19.5018
1210 1 16.193 13.1955 20.9835
1015 3 14.8711 12.4049 18.9718
137 1 15.267 10.22 21.6294
616 2 17.1915 11.4878 21.5517
865 2 15.9343 13.598 22.9695
2040 3 15.4109 11.8678 22.5763
1631 2 18.0991 12.3176 20.2378
139 1 17.2694 11.9703 23.841
732 3 14.7579 10.8788 23.2406
1053 2 18.9143 12.1455 21.6224
747 2 21.1453 13.7612 22.5506
1482 2 20.2742 12.028 22.6286
2025 3 23.5521 9.83743 19.1505
15 1 20.0735 9.91005 21.4522
265 1 20.5934 12.4271 20.0051
730 2 21.969 12.2593 21.6823
318 2 24.2388 12.9367 21.8001
1485 2 26.5244 9.25042 23.1443
355 2 24.3078 9.84243 22.0145
1972 2 26.8626 12.0889 20.5444
1671 3 24.4415 11.3333 21.5492
181 2 23.8861 10.3314 20.525
931 3 27.8993 12.6496 19.0198
78 1 26.4403 9.86805 20.6979
942 1 26.0959 11.9556 22.6005
876 3 24.7771 13.8847 22.7769
51 1 24.9242 12.0163 19.5111
653 2 16.4735 14.015 24.7672
1256 2 3.42421 1.52575 26.0934
1206 3 26.1414 10.1691 27.5678
581 1 2.62249 1.07221 23.7293
1486 1 0.649609 1.3134 26.1412
1382 1 3.4892 3.56012 24.5156
608 3 1.40155 2.96834 25.0907
996 1 2.6232 3.42217 27.1123
905 1 28.1046 3.20404 24.5463
1852 1 9.50423 0.249737 28.0472
1570 2 25.6701 11.3987 24.7894
1665 2 4.92922 1.05817 26.9736
1462 2 6.54488 1.64696 26.3604
1228 1 6.60066 2.03195 23.8528
1926 2 8.9221 2.9497 23.7947
861 2 8.00678 2.45168 25.8726
306 2 7.81409 0.645969 25.3764
110 3 8.17285 3.79424 24.9805
1178 3 11.4431 0.771288 24.8334
1959 2 10.5631 2.33015 23.9165
1196 1 10.2704 4.20003 24.7087
1272 2 10.1412 2.21497 27.6981
446 3 10.4335 3.86882 27.6848
1675 1 13.8506 0.788866 23.9711
965 3 12.441 3.99925 25.4217
988 1 11.842 2.7445 26.4236
604 3 16.9722 3.44719 24.2657
2035 2 14.2799 1.06754 26.9967
1540 3 14.3554 1.59383 25.576
1812 1 16.2022 3.27091 28.0243
1698 2 14.4457 3.3115 26.4776
1112 1 18.8841 3.31585 25.1447
906 1 16.2926 1.75112 25.908
2032 3 17.2225 2.21542 23.7187
1201 3 17.704 2.50037 27.0368
873 3 14.9557 4.51764 26.3961
1404 2 20.1418 2.55453 28.1715
562 2 22.672 2.96346 27.9407
1371 3 21.4736 2.17023 24.5753
1336 3 20.5317 2.98623 23.6576
475 1 19.8739 1.35983 26.2558
1916 1 23.2385 1.36747 25.7191
799 1 22.187 4.70423 25.7775
1894 2 20.428 4.61503 26.6991
1682 2 20.5203 4.84055 23.1932
2015 3 27.2954 -0.110795 24.2844
1282 3 27.2623 2.43739 26.6374
707 1 -0.00885476 4.83513 26.9483
1448 3 24.3165 2.12154 27.4603
5 2 25.5922 1.53708 24.483
1822 1 25.2428 3.41234 26.0442
1444 3 24.6498 2.85915 24.0814
919 1 25.8702 0.398404 26.6919
127 2 27.5976 1.64718 27.8886
403 2 1.01916 9.45248 23.9463
170 3 3.70376 5.03966 26.4101
1608 3 3.24291 7.72426 26.8493
961 1 0.728628 6.39369 24.0262
1927 1 2.62139 5.91585 27.8911
327 1 4.24882 6.79972 24.5599
1722 1 2.03323 9.47332 26.7037
1072 2 4.00985 9.20049 25.4643
1149 3 0.654524 8.46211 24.997
1068 3 -0.0884515 8.48891 27.7664
1979 2 4.62952 6.27401 26.7411
70 2 21.5912 13.8797 27.906
436 1 5.96782 4.4208 26.2743
442 2 6.38485 6.31512 27.0362
388 1 6.79922 7.07215 25.1211
297 1 5.07458 8.61769 27.1787
1851 3 5.94016 5.71058 23.749
23 2 7.42774 7.59244 27.8129
1300 2 8.10808 5.30973 25.6417
29 2 5.83532 8.82518 24.1603
1024 2 7.24911 9.70739 24.5912
48 2 8.34279 8.43917 24.3629
1102 2 11.9119 7.72943 23.6822
1381 3 13.4773 7.32867 23.8757
1128 1 12.7206 8.08572 28.3101
1901 2 12.3047 3.65805 23.7097
1555 2 9.28895 6.86271 24.9691
3 2 10.8515 5.07219 27.0301
1778 2 10.4156 7.70255 24.4439
12 1 12.028 6.19594 25.3846
1446 3 11.4124 6.4499 27.2403
1033 3 13.078 7.89747 26.3552
1936 1 9.01556 9.34912 26.2041
1777 2 17.2793 7.55633 26.5878
242 3 16.1487 6.05183 23.6703
430 3 18.9098 7.21993 23.6805
750 2 16.8354 7.3074 23.9207
1126 1 14.6648 5.07852 24.2429