# LAMMPS data file written by OVITO Basic 3.7.11
2048 atoms
3 atom types
0.2245415176 28.514867479 xlo xhi
0.2245415176 28.514867479 ylo yhi
0.2245415176 28.514867479 zlo zhi

Masses
 
            1   47.86700000             # Ti
            2   10.81000000             # B
            3   12.01100000             # C

Atoms  # atomic

437 3 2.12206 0.104326 4.37364
1738 3 2.97413 0.415533 3.13831
1024 3 28.4283 1.05372 0.52932
897 1 2.48377 0.962798 1.31851
1979 2 28.1835 1.95079 2.00125
1130 1 3.85161 2.8833 3.70171
92 2 2.44452 4.80993 1.34374
1990 1 0.831214 3.42143 0.928686
1241 3 2.23455 14.054 0.447495
630 3 5.35666 3.14528 2.62229
1098 1 5.43351 1.13136 2.0194
1884 2 8.4293 0.650086 5.03499
1931 1 8.94591 2.5435 3.48846
1575 2 5.78634 4.2359 3.79903
1414 1 7.39611 3.57892 1.99218
283 3 1.11313 12.7894 12.0659
948 2 21.9357 13.8508 1.03423
1305 2 7.92106 12.3485 0.535876
1923 3 9.57606 4.85088 2.80733
259 1 13.474 2.45461 2.32193
973 3 12.5147 1.63603 0.743006
152 3 10.8525 4.4531 3.29952
1071 3 3.37867 1.36191 10.3355
35 2 12.4422 2.9826 0.420068
1206 1 12.0541 0.595689 4.32423
457 2 14.2426 4.22112 0.804726
670 3 13.9993 5.11053 1.92876
1311 2 11.8472 3.27243 3.57644
1737 3 12.469 2.69196 4.73761
1042 2 13.7298 2.0058 5.36892
1185 2 15.9508 2.23885 0.690931
1359 3 18.2165 1.7613 4.54282
221 2 17.6417 3.11373 3.94616
1089 2 17.5175 4.00782 1.15667
985 3 16.8919 3.20579 2.50382
598 3 16.1762 3.77953 3.55603
1236 1 17.855 0.978207 1.77902
1653 1 14.3559 4.17973 4.99811
1791 1 16.563 0.318815 4.44311
1641 2 27.9488 14.5068 10.2825
852 2 22.234 2.48509 4.87354
1137 1 23.4851 3.93238 3.02409
998 3 21.3994 3.89773 1.32505
709 2 22.8132 3.86485 0.580832
1461 2 21.1528 3.1747 3.59762
355 3 22.3334 3.59589 5.88872
110 2 21.7737 1.32325 3.56987
1701 3 16.7942 14.1241 12.216
1904 2 20.1523 3.27574 1.89963
501 2 19.1442 4.04812 3.58439
341 3 24.2684 4.36649 1.27023
17 2 18.779 5.07528 5.07162
656 1 21.7606 1.83959 0.766676
1589 2 25.5117 4.25477 2.537
1104 2 28.2282 3.16652 3.71823
1508 3 26.957 1.3472 4.42641
1319 2 27.0003 1.85228 3.13525
910 3 26.0473 1.30403 2.08632
485 2 24.8347 0.852948 1.23713
1635 2 26.8039 4.30081 3.60584
393 2 25.4574 4.03295 4.3314
1455 1 0.4079 5.58094 2.97167
1881 1 4.60528 5.12411 2.02041
1826 2 2.83975 4.97992 3.09892
878 3 3.46688 6.72663 2.65288
1340 2 3.33194 7.28345 1.3146
1002 3 3.99956 8.34786 0.53629
1749 3 28.3007 7.11315 1.37073
312 1 1.58993 6.58876 0.0640447
1560 3 1.16243 6.19432 5.50851
590 3 2.38185 9.90933 5.06423
1543 2 4.41205 7.8568 3.58241
679 2 6.69917 5.72573 4.04222
1245 2 7.0209 6.282 2.55366
1124 2 6.00842 7.35509 3.41132
853 1 5.91958 7.69087 1.16147
710 1 8.87118 7.17545 3.4481
1794 2 5.49341 8.90824 3.90171
1159 1 8.77857 6.38923 0.920849
1470 1 14.172 10.1955 1.72626
1514 3 10.1701 9.72905 3.49662
1688 1 11.7868 5.7838 2.21123
405 3 12.1283 7.81037 3.13071
1271 3 7.39258 13.8444 9.57891
1293 3 10.2136 9.12234 2.33035
761 3 12.6793 8.75122 0.97411
45 2 11.022 7.99918 1.5735
380 2 13.5783 8.36956 3.5233
1920 2 12.999 6.33439 4.20055
1195 3 13.5479 5.51038 3.09744
10 3 16.5327 9.15653 3.24164
2025 3 17.2873 8.64218 2.25915
347 1 18.7015 8.01585 4.00257
1864 1 17.578 7.59908 0.688037
25 3 16.9262 13.9282 13.4485
273 2 16.0632 9.70012 0.233098
858 3 19.0045 9.71513 4.91665
245 2 18.2697 5.75539 3.55704
650 3 13.5061 0.0975176 3.04015
415 2 22.0483 6.99099 1.06905
914 2 7.96055 0.242287 2.94753
1871 2 22.9189 5.56802 1.64173
228 1 19.5944 5.39414 1.69459
1810 1 22.6609 7.90229 2.89247
233 3 20.6551 7.48193 3.66061
747 1 20.1295 9.05763 0.857732
920 3 24.1921 8.36211 4.95268
753 3 21.5995 6.88602 4.49957
593 3 23.4924 5.98731 3.57598
890 2 26.1064 7.41339 2.58165
445 2 24.3875 7.16489 4.3377
524 2 27.027 6.92323 3.87764
911 2 25.2961 5.64249 3.52055
924 2 25.8614 8.59265 1.41077
1522 2 27.0132 7.37099 0.905005
1145 2 28.0017 6.68607 5.07284
1731 1 2.48814 12.3571 1.50185
1813 3 0.495146 11.0608 1.09722
8 3 2.5814 11.0395 3.93166
1255 2 4.67044 13.2671 3.76934
692 2 5.01751 13.4788 1.26123
272 2 2.57747 14.025 3.88087
1417 2 28.3655 11.5288 2.42929
1259 2 3.59442 11.9491 3.47051
870 1 0.357044 13.564 3.53124
662 3 6.15573 10.0924 2.03675
1785 1 8.09069 9.68357 1.84241
2028 3 6.02472 12.4832 0.762552
1934 2 5.59452 11.6226 1.93525
379 3 5.01167 11.7847 3.16286
254 2 8.69824 11.7334 2.04353
986 3 8.27588 13.6127 1.50217
1984 2 8.39112 13.1389 3.1485
1615 2 9.96978 9.77961 5.11878
701 2 5.94375 10.7864 3.9673
27 3 8.90377 13.3967 4.37042
1383 3 12.085 0.394995 0.573545
608 2 14.6229 13.1832 1.24646
1542 1 10.6965 12.7136 3.14147
1049 1 12.9963 13.2029 4.36464
1040 2 2.56109 13.6621 10.715
1611 2 12.1212 10.4676 1.08586
1893 3 13.6127 14.299 0.970427
1689 2 13.4024 9.79798 4.50645
1343 3 16.1245 11.7702 1.47359
683 3 17.5244 11.636 1.57785
1146 1 16.9104 13.4304 2.63982
916 3 18.7868 12.4597 1.53751
311 2 16.8466 10.4394 2.19712
1020 3 15.1549 12.1804 4.32393
506 3 13.8389 11.3876 4.38479
492 1 19.6063 14.1561 1.45089
1333 1 16.9653 10.8846 4.93536
231 3 19.2355 10.5465 3.89697
1234 2 19.1158 11.2988 2.56492
1277 3 22.3398 10.585 4.87837
266 3 20.1555 10.9027 1.5999
1730 1 21.5875 11.5482 2.88447
1761 3 21.9249 9.79349 1.95415
1447 1 8.82297 0.459827 0.521268
1836 3 23.2069 9.97429 1.56401
134 3 21.2684 13.1238 4.69638
148 2 23.2364 14.2994 2.37269
533 2 23.5032 9.64882 5.55189
434 2 24.0791 11.3418 12.3625
606 2 20.4514 13.263 3.48212
1833 2 21.7201 14.4436 3.86833
1320 2 23.3776 9.98572 3.93869
1224 2 26.9065 11.0258 2.68432
1066 1 26.1086 9.40535 3.65172
719 2 24.5322 9.36376 2.21798
1968 1 25.046 11.6875 1.57263
1315 2 26.8983 14.7577 2.03467
640 3 -0.0512961 14.6755 1.34051
298 3 24.1904 8.41262 0.876468
553 3 25.8266 13.82 1.34279
375 2 26.3835 11.6234 4.43951
1719 1 25.0928 13.3975 11.2321
1346 3 2.11055 3.43865 5.66547
1409 2 25.6471 10.9814 11.8071
1123 3 3.25901 4.26267 5.84
1452 3 4.48146 1.62271 5.3651
197 2 2.277 4.29537 8.30072
39 3 2.88878 3.25502 8.87003
1669 3 28.0476 4.03893 7.73303
625 2 0.912231 2.63615 6.68174
583 1 0.74859 2.37269 9.02476
1378 1 3.77258 1.40071 8.14313
1242 3 0.637358 1.1855 6.69256
775 3 0.36114 4.75766 8.67921
1914 2 4.46429 2.84389 6.42244
1827 2 6.46599 0.623103 5.37245
389 3 5.57794 2.82432 7.71385
873 1 8.37324 1.40913 7.55885
559 3 6.37834 2.0851 8.41259
901 2 10.0506 3.193 9.37898
919 3 6.4518 5.97387 7.75837
522 3 10.5485 2.36492 8.21806
1220 2 10.1924 0.9973 7.1702
810 2 10.1391 4.04125 6.41508
18 2 14.1143 4.95297 7.51673
557 1 11.9583 2.22063 7.03562
352 1 11.3086 5.16577 8.35203
817 3 13.6284 0.77729 7.99316
1921 3 17.3425 2.69049 0.535055
1828 2 14.8264 0.736687 5.58416
318 2 9.05431 3.39668 7.54221
1955 2 15.5223 4.31254 7.04413
891 2 15.4671 2.262 5.55219
564 2 16.6745 2.74697 6.61522
1095 3 17.0117 3.41888 7.84044
728 2 17.3002 4.25703 9.17347
300 1 14.1318 3.00865 9.25104
545 3 14.8273 1.12648 8.68062
847 3 17.2607 2.24341 5.47171
894 1 16.8878 1.95332 9.68227
76 1 23.966 0.682178 4.82341
162 1 18.9667 2.79942 7.30928
1861 1 22.27 1.38561 7.92498
571 3 20.0551 1.0341 7.36856
1665 3 23.6869 3.58534 6.71212
258 1 20.9474 4.88432 4.74628
1289 3 24.1049 2.59528 7.40201
1930 1 19.8607 0.367184 5.28011
26 2 22.1483 4.72078 6.88534
1126 1 21.594 3.64577 9.27096
707 2 27.5785 1.67214 5.59143
1725 1 27.6342 4.30529 5.75049
2009 2 25.0314 1.6798 7.85547
1830 3 25.3886 1.55825 9.14712
1144 2 24.8658 4.45303 6.89358
1232 1 26.5774 5.01483 8.79928
1703 3 25.6102 4.31213 5.69964
763 1 3.86168 6.22412 6.07321
1448 2 1.81204 4.95007 4.90828
1924 3 0.755439 9.17593 9.00033
1436 2 1.56347 9.0848 7.78115
1450 2 2.68995 6.8958 7.8072
385 3 2.64338 5.5535 7.57654
1501 2 1.56055 9.28803 6.27926
1782 2 0.694263 7.54925 6.25598
1103 2 6.88663 8.62255 5.80341
1510 3 9.3537 9.04223 6.13938
1829 3 6.80521 7.3573 4.94975
1534 3 8.37568 5.63476 6.69546
833 2 7.88762 5.72519 5.22075
824 2 8.03877 9.3841 6.84869
646 3 5.51945 6.63004 8.61761
1371 2 9.38213 5.28373 7.86764
1092 2 7.97725 6.1877 8.36574
1521 1 9.35146 7.55254 7.19171
698 3 13.6681 8.47731 5.30069
1301 1 11.5808 7.76237 5.53977
324 2 12.1084 8.63046 8.62638
1854 2 13.1514 6.18722 6.9739
1776 2 15.2203 5.2359 9.12624
108 2 9.84806 5.58282 5.64874
642 3 11.5151 7.44572 7.9797
1389 2 14.2603 6.46676 9.94583
374 1 13.9552 8.45137 7.23864
888 3 17.7047 6.19949 4.84179
922 1 15.8036 7.45263 4.99143
1006 3 15.8613 8.14774 6.8463
1729 3 17.0548 7.8284 6.89055
417 3 15.6581 5.36567 11.7029
86 1 16.8187 6.83315 8.73391
1292 1 18.6625 6.44124 6.6787
1989 2 21.8872 5.80438 7.81721
909 3 18.9981 5.72134 8.39664
1684 2 19.9464 8.27848 7.7379
906 2 22.2073 8.13442 8.08689
278 2 20.2629 6.48996 8.2174
314 1 22.3786 7.08337 9.69858
1747 3 20.0464 9.58899 8.55237
1261 2 22.0206 10.0743 7.63348
1912 3 23.8435 10.2951 6.89852
213 1 20.8426 8.88072 5.57996
576 1 26.0965 6.68323 6.39914
686 3 0.847317 5.95456 9.28545
41 2 27.8954 8.59871 5.06756
1639 2 24.1713 5.92848 7.91609
1674 1 24.1059 8.94446 8.42051
1368 2 28.2898 6.31542 10.2549
896 2 25.4769 6.83186 8.39594
1633 2 0.745927 13.4762 6.37233
752 2 2.3211 9.97323 9.22383
971 1 2.59515 12.2513 5.71722
1818 2 2.83674 10.3227 7.3205
1207 2 1.94721 11.9767 7.92705
117 3 2.68237 13.6167 7.50833
1638 2 4.05873 11.0719 8.34663
123 1 1.29257 13.9879 8.88256
1529 2 28.3457 10.5258 9.1201
1939 3 0.438473 12.6895 5.2201
1025 3 0.411586 11.8261 8.78466
269 3 8.47202 13.6126 5.71411
422 2 6.57818 9.94636 5.0818
1120 1 8.25866 11.6566 6.46332
340 3 4.73774 11.9795 9.13684
431 1 6.33741 10.6589 8.62069
290 3 8.40574 10.0756 8.38738
511 3 9.62096 9.52201 9.00773
1075 3 5.77655 12.4211 6.6887
1559 1 4.43715 13.7854 6.19393
1184 2 5.97482 11.4984 5.77489
1655 2 5.20916 13.1865 8.21684
1272 3 24.0145 11.2223 13.8582
1141 2 11.0457 13.2328 5.46438
412 3 9.99848 13.819 8.69145
1390 3 10.6484 10.528 6.1037
1491 1 10.8865 10.8391 8.03875
491 3 13.7977 12.6702 6.73069
1573 3 14.4277 10.519 9.43224
615 3 10.4699 11.9185 6.43242
839 2 12.2224 14.3808 9.79612
446 2 14.4638 13.4999 7.91124
1139 1 11.7998 13.3978 7.43046
1883 2 15.7486 10.6422 8.52825
1640 1 15.9814 13.1289 6.51857
1037 2 15.0601 11.6478 10.104
1444 3 16.693 11.3733 7.52009
1664 2 17.4136 12.5528 8.91883
1345 3 17.2997 12.7374 10.9006
264 1 17.7878 9.59484 8.04232
727 2 19.5231 13.8507 7.54445
1952 2 18.904 11.9876 9.5811
993 3 22.8128 11.0043 8.94872
1909 2 21.2252 10.7886 6.15346
1672 3 19.5812 12.231 7.83349
507 1 21.3072 12.822 8.85157
1693 2 20.074 10.2015 7.32402
1862 2 23.1888 11.5584 7.44158
1728 2 24.664 12.6467 6.22506
125 2 15.572 13.4249 14.1233
765 2 21.0816 12.5049 6.12653
673 2 27.948 11.7762 4.18065
387 2 24.7611 13.7239 7.75874
819 3 25.2081 11.824 5.17444
156 2 25.2839 10.7668 6.46953
101 1 27.3466 9.97539 6.38969
1280 2 27.5472 11.2951 13.0563
388 1 26.9274 12.4099 9.40175
657 3 23.6241 12.8602 7.16986
2014 1 26.8375 14.242 5.45535
905 3 26.19 13.7092 7.33411
859 1 11.0391 2.95182 14.338
1764 1 2.09889 1.37389 12.2124
1897 3 2.45282 6.03568 11.3603
1614 2 1.29416 3.56719 12.3972
802 1 4.05347 3.41108 10.7154
1477 3 2.74861 3.7745 12.551
1819 2 0.499847 2.23084 13.6146
814 3 4.80004 1.56915 11.35
1490 3 4.66061 0.415263 12.367
1005 2 28.5728 1.41538 10.9807
1073 3 28.1723 3.4131 13.4408
356 1 6.4213 1.03142 12.561
1961 2 8.92593 3.73372 13.5289
796 2 6.84671 3.77955 14.2489
1978 2 7.66474 2.32533 13.9242
653 1 7.69711 3.52505 10.7509
1391 3 6.62566 3.90605 12.2744
892 3 5.59291 4.88376 11.8412
1759 3 9.11053 4.33101 9.15246
823 2 9.21585 2.82855 12.2306
660 1 11.1474 0.758443 12.4474
1187 2 13.4496 3.35438 11.3438
127 3 12.3555 1.04903 11.0066
1991 3 12.6754 2.15566 10.5207
281 2 12.6753 3.43584 13.1293
652 1 10.6671 4.10272 11.2602
742 3 11.6602 4.62469 13.3815
622 2 23.3106 14.3353 8.94463
1353 2 15.1263 0.559669 10.3715
1832 1 25.142 13.2364 13.9468
1175 3 15.7983 0.65991 11.7243
774 1 18.7247 2.88718 12.4212
296 2 18.1235 3.73369 10.5977
907 1 14.9672 2.61875 13.2996
251 3 20.5335 0.931264 13.1616
1825 2 8.18183 13.0843 14.2227
377 2 24.0821 1.88148 10.1288
649 2 20.4972 1.70058 14.2677
1081 3 20.5561 3.27094 10.9059
190 3 23.4271 3.24129 10.5558
935 2 21.1236 3.95888 12.9816
157 2 22.1424 1.07913 12.8179
732 1 20.6691 1.27134 11.1554
424 3 23.562 1.93088 13.4068
336 2 20.3661 4.58449 11.4973
933 3 24.5832 14.1243 9.65043
243 2 27.3595 3.13304 10.8946
1298 3 26.1132 3.49555 11.913
410 2 24.9951 1.49764 12.6507
142 2 24.3276 0.34204 11.1315
310 2 24.9666 3.90168 10.6344
244 2 28.511 0.826621 12.6675
1087 2 26.6412 3.64298 13.3044
1007 1 26.5964 1.64323 14.0342
1677 1 23.824 3.71488 12.6802
785 1 1.93437 7.51842 10.0033
1772 1 4.28567 5.17071 13.2053
1644 3 3.52059 7.07015 11.637
1407 2 22.1927 4.33603 14.2131
1993 3 2.23277 4.58131 11.6668
674 2 3.96377 8.04204 12.9703
601 3 6.16411 9.37496 10.2492
1475 1 5.93577 7.35606 10.46
903 2 5.95776 8.92723 12.1899
720 2 8.6377 8.13792 12.0342
1892 3 7.08358 7.70099 12.4889
1418 2 9.91044 6.88725 13.994
1687 2 10.4987 5.38079 13.1627
1459 3 9.16657 7.23974 10.8662
1793 3 8.28877 7.11852 9.71104
476 1 7.04228 5.86121 13.6082
293 3 13.8248 9.97551 12.2067
1190 1 4.03723 2.35249 14.0266
1217 3 12.8363 6.59848 10.2615
1033 2 12.2371 6.07112 13.2253
1278 2 12.0721 6.56062 11.6054
1421 1 13.2756 8.45943 10.9647
1799 2 10.4346 6.23753 10.4694
875 2 10.7989 9.69296 11.5121
917 3 12.7293 6.87846 14.3659
832 2 10.927 9.15099 9.72797
1394 2 17.0226 5.56692 10.3946
628 2 14.9242 4.48921 10.6913
803 3 18.4642 5.01482 11.3397
358 2 16.8845 7.31398 10.8257
172 3 16.1237 8.10544 12.1322
1902 1 17.1989 5.47552 12.9417
954 2 15.3372 6.98401 11.3668
1741 1 18.3157 9.24804 12.3339
822 2 15.2047 9.78544 12.2271
304 2 19.2876 5.48443 12.6374
113 3 20.2302 9.14663 13.9524
238 1 19.1281 6.90102 10.6314
737 3 26.4158 12.2122 12.2019
475 3 20.1801 8.18399 12.6171
1603 2 21.2653 8.25126 11.4427
1117 1 21.6632 6.09942 12.7982
1488 3 24.4871 6.19714 13.2655
1316 2 22.793 8.89926 11.0361
1014 2 25.7535 5.49789 12.8811
122 1 28.1503 5.36856 12.1018
1356 2 27.5828 6.19701 14.3267
489 2 23.4714 5.06806 10.2908
359 2 26.2554 7.14453 9.93969
1541 2 24.5583 6.05547 9.67872
537 3 26.256 9.72058 11.0573
53 3 26.4769 8.73526 9.99712
1652 1 24.7207 7.44333 11.5697
1088 3 2.7009 14.3787 12.2581
1823 3 3.42609 12.8704 11.988
1012 1 4.21489 10.1725 10.5154
1330 3 0.784957 11.7144 12.9169
443 1 2.80845 11.5232 13.3005
1734 3 3.65646 9.48754 12.7019
319 2 15.4879 0.365663 0.886965
1268 3 17.9585 3.74244 14.1943
1751 3 5.6502 14.4549 12.5253
1022 2 4.40474 13.6059 13.0768
472 2 8.85213 14.3154 9.68334
464 1 5.5996 12.8425 10.8509
621 2 8.52035 12.9872 12.1938
1995 2 6.38681 10.8801 11.117
904 2 6.76887 11.2554 12.972
498 1 8.73952 11.415 10.0386
1926 3 7.47559 11.8291 11.8225
528 3 0.672453 13.673 11.09
1779 2 11.1822 12.8802 9.84879
1401 3 10.4477 11.2005 11.9574
639 1 12.7041 10.9709 10.4878
1851 2 10.2127 12.7283 11.8604
361 1 10.8947 14.2273 13.2379
1556 2 13.0518 13.2224 11.552
1736 3 13.6028 11.6028 12.1361
357 1 12.0524 9.78339 13.4275
966 1 15.5776 14.0416 9.945
1366 3 17.2146 10.046 14.2608
1273 3 14.3502 12.4051 11.1046
1157 1 17.281 11.7878 12.8754
581 1 18.9295 13.8762 14.449
421 3 16.513 9.92517 12.0339
159 2 18.8209 12.9614 10.8292
115 2 21.4368 11.7098 14.2377
1031 1 22.635 9.36456 13.1355
1039 2 15.2462 13.649 3.81615
368 1 20.2953 10.9852 11.5073
1150 3 22.5551 10.6986 11.5125
990 3 21.9132 11.2513 10.0565
274 3 21.3663 13.2272 14.2091
1306 2 20.208 13.1699 11.8257
1723 3 19.7443 9.25089 9.95752
121 2 10.001 8.69493 13.9011
984 3 2.60731 0.868727 14.4311
818 3 7.27563 0.887796 4.11151
696 3 24.4445 0.482356 7.06778
1895 3 20.5836 14.2888 13.2309
95 3 11.3382 0.253221 5.96243
1215 3 11.7879 14.215 3.16959
1708 3 23.3583 5.77195 14.0556
1326 3 1.82187 7.82782 14.2123
1977 1 7.50894 8.60553 14.1354
111 2 16.6463 8.50329 13.7346
1274 3 6.77547 10.6959 14.2572
1457 2 3.61025 3.95524 0.176723
1869 3 11.0067 5.01658 0.142946
176 2 11.2756 6.59208 0.260911
1183 3 17.8069 9.54213 0.0950547
681 3 2.96468 3.80619 15.4179
1018 1 3.55871 1.85117 18.306
1260 2 1.41554 1.54366 14.9374
820 3 0.707661 1.50905 16.0765
1698 1 1.32193 4.68105 18.6373
1705 2 1.17401 1.79462 17.3625
980 2 21.3535 0.347271 27.061
1288 2 1.3915 11.5777 15.0278
1843 2 3.70887 4.07585 16.6666
603 1 1.27505 4.50662 15.246
1435 2 5.18668 2.6985 17.5182
1724 2 4.0211 4.59598 15.019
83 2 4.12803 3.74262 18.4314
579 3 0.680217 2.53566 18.6192
200 3 4.88455 1.16817 16.8433
1085 3 5.33696 1.49719 15.4813
31 2 7.94147 1.0436 18.9891
302 3 7.99113 4.66744 14.8477
1147 3 9.53531 4.38211 14.6826
744 1 8.95661 0.669258 14.6624
1727 1 7.03255 1.77623 17.0388
1091 3 -0.091717 0.18985 25.6895
1152 2 6.42525 1.78505 14.6467
1602 2 6.6392 4.21442 16.0743
143 3 8.09404 4.05328 16.9951
1699 3 9.52697 1.66584 18.0538
1431 2 25.3022 13.7327 24.1031
411 1 10.3925 3.27943 17.4795
1379 2 16.3649 1.45294 17.0876
1299 3 9.22713 1.1842 16.7867
693 3 12.4629 3.39012 15.7359
1161 3 13.7593 3.6845 16.5052
1451 2 14.653 0.845836 16.7282
1202 1 14.6137 4.64599 18.7032
1001 1 11.3551 0.683304 17.3322
718 3 16.6073 2.95195 16.3913
1742 2 17.5142 3.96199 15.6045
1849 2 18.1422 5.23138 14.9158
106 1 18.2881 1.88401 14.7067
1282 2 15.9146 5.17674 15.2323
1265 2 27.3259 1.43446 26.406
666 2 15.4007 3.82701 16.3012
994 3 13.9754 0.476121 15.3618
1544 3 23.2873 1.25748 16.1929
1430 2 20.4014 4.35036 16.2478
1218 1 18.5239 1.94364 17.9903
1661 1 22.136 2.45342 14.9014
331 3 23.456 3.82811 16.531
620 2 22.165 4.52825 16.6568
49 2 20.4428 2.64001 16.3276
188 3 20.6328 4.81812 19.01
1198 2 20.595 3.74972 17.9517
366 1 22.9911 2.21252 18.0187
1038 2 22.5939 14.5285 21.6505
455 3 24.6924 3.4411 16.3454
1344 3 25.5665 2.75473 15.5682
1592 2 25.0842 1.05318 16.0245
715 1 26.9567 3.18567 17.7066
540 3 24.1902 1.00577 17.2896
783 2 25.8218 13.2887 28.0273
1079 3 2.44554 5.73801 16.9531
1907 1 0.815981 7.13131 16.845
723 1 4.01879 7.06155 16.6748
2034 3 3.86146 8.97394 15.7279
1958 2 2.62856 10.0177 16.1042
2006 3 2.78623 8.08773 15.125
184 3 0.692901 6.54119 18.9919
1538 2 16.8804 14.0925 27.8194
349 2 5.24057 5.91106 14.9586
1788 2 5.40108 8.86345 15.5645
58 1 2.15409 14.0135 24.7618
345 2 10.1923 7.91817 16.5531
759 3 6.13752 5.8109 16.2262
1243 2 6.38101 7.14411 15.6347
1971 3 9.19848 7.51043 17.7042
1269 2 6.38632 9.31679 18.9108
1415 1 6.70729 5.49447 18.3119
1341 2 7.91689 8.49385 17.6955
1872 3 9.86173 7.78575 15.0736
591 2 12.531 4.57866 17.081
1115 1 11.3805 5.57443 15.5077
1735 3 12.308 6.04924 17.5058
1010 2 11.807 7.39608 16.8523
1170 1 12.9821 7.35223 18.8385
1479 2 12.4692 9.93449 18.4226
960 1 10.3948 6.28716 18.4784
1945 2 9.86941 13.6307 16.3197
1865 2 12.7295 7.88671 15.3297
784 2 15.2433 6.6423 15.0583
1135 2 15.289 5.80234 16.8959
736 3 15.9033 8.01481 15.0963
956 1 14.9027 8.41673 16.5612
1692 2 16.6505 6.86425 15.8625
1513 3 14.6283 6.63069 18.0108
1034 2 18.6941 8.14933 17.7961
185 3 17.5905 7.4063 18.1771
1197 2 16.4559 6.37506 17.8955
1800 3 23.4911 0.655107 18.8448
1695 3 20.0517 8.59101 17.7408
1858 2 21.0108 8.52625 16.6119
1988 2 20.9567 9.11669 15.2264
1148 2 20.9181 9.90636 24.3232
1283 3 17.9699 6.43733 15.5432
317 1 19.4893 6.63983 16.7972
1840 2 22.7754 6.88963 15.081
137 3 21.3746 7.63601 15.4737
136 3 22.8983 7.78663 20.0281
604 2 21.32 5.26661 15.2756
921 1 21.7545 8.9514 18.8369
643 3 28.0866 4.80964 17.2618
1697 3 23.2842 8.08776 14.2091
1941 3 27.0559 5.4272 16.5301
21 1 25.2486 5.15422 15.1581
344 2 26.6892 8.26272 15.1623
1424 3 26.9098 6.67356 15.6723
1026 2 24.0883 8.29642 19.3847
131 1 26.9782 6.08695 18.8666
1976 2 25.4345 8.12696 18.3631
1660 3 26.9101 8.51111 18.4239
1106 2 4.65992 13.1259 15.7907
2037 3 2.67066 11.459 16.0597
1325 2 0.605437 11.1179 16.6413
592 1 0.423985 13.5627 15.5002
988 2 2.95709 12.669 15.2363
268 3 4.33481 13.065 17.362
1422 3 0.868963 12.4923 17.5543
1070 1 2.82998 13.2489 19.0903
1056 3 1.62903 13.689 17.3449
1507 2 1.28074 11.8075 18.9393
1690 1 4.42452 10.5385 17.4499
1837 2 5.11291 12.4415 18.4956
596 2 9.15301 12.22 18.4976
223 2 6.49407 9.86714 17.0958
1110 3 6.3093 10.1495 15.528
1666 1 7.03023 12.1602 15.9446
1887 3 9.11234 12.9032 15.4784
42 3 6.37189 10.8897 18.6
1314 2 17.3732 0.0746964 20.6261
851 2 7.24047 12.1927 18.9077
1649 2 9.68593 11.3902 17.2198
874 2 16.5713 10.7746 15.3298
1412 1 10.5741 9.32142 18.238
691 3 10.0499 10.2517 14.2918
196 2 13.6623 0.509259 18.6832
1676 2 9.69985 11.5042 15.3428
685 3 12.2438 11.7875 15.58
574 2 12.4798 11.3617 19.1385
779 1 11.9681 9.86198 16.3674
1925 1 24.6866 12.4367 26.0963
1876 3 12.127 12.7442 19.3025
204 2 13.7235 11.6094 15.4573
1700 3 11.5629 13.0731 15.1481
1065 3 14.9785 10.8221 15.8545
1805 3 14.8945 12.3408 14.6988
548 1 16.2449 12.3089 16.7993
1472 3 18.0211 12.2002 17.199
1072 3 15.5072 12.2515 18.8087
1354 2 18.1466 11.0321 18.3813
1064 2 25.148 9.10211 24.9341
861 1 28.2424 13.2846 26.4589
263 2 8.30393 13.5676 19.5501
1097 2 23.5961 9.16684 15.7486
247 2 26.4269 10.7592 26.7201
183 2 21.3217 14.0386 15.8418
1352 2 19.6533 12.6946 17.7905
1372 1 19.5892 10.3929 16.456
931 3 22.7362 9.50941 16.9969
863 1 23.3551 11.3994 16.1056
510 3 20.3671 13.8755 17.2437
267 2 22.7209 12.1394 18.6785
182 2 23.0932 10.6725 18.0716
1471 2 22.077 13.6256 24.5001
1258 2 24.3417 11.3357 19.0413
1607 1 21.2798 13.9063 19.4562
1643 3 25.8282 12.6773 15.998
594 3 21.0889 10.5135 14.6133
295 3 25.1572 12.2102 16.9412
1279 3 26.486 9.79985 14.9801
834 2 27.0111 11.2285 14.6452
849 2 24.739 10.0752 14.8029
436 1 26.18 10.0524 17.0927
164 3 27.0132 12.7188 15.4412
1539 2 4.05392 0.690327 28.2961
1474 1 26.3985 14.4204 16.7947
277 2 24.9875 12.9616 18.3478
1831 3 20.7154 13.5575 23.8926
67 3 3.6363 3.3575 19.5675
1392 2 1.45934 4.07157 21.3429
89 1 0.456844 2.05675 24.4811
5 1 4.43013 3.01266 23.513
1440 2 0.907649 2.26781 20.1577
107 3 0.695274 6.7849 14.4088
52 3 4.24288 0.891325 22.5321
1296 2 5.06283 0.362914 21.0435
1125 2 -0.0574854 2.52668 21.7188
1943 2 28.5212 3.72654 22.6676
72 2 3.11091 4.49248 20.4706
1846 3 8.92356 5.10823 17.2559
28 3 7.7353 1.59758 20.5194
91 2 6.19238 1.05011 20.1779
1564 1 9.28696 2.22553 21.9329
97 1 5.78 3.39738 20.0502
705 1 8.6736 4.59556 23.4599
246 2 12.4679 4.87623 19.8744
1967 3 10.022 3.20292 24.0402
768 3 10.4971 3.03924 20.3296
1745 3 11.5501 3.92703 20.5818
129 1 11.3235 1.02011 19.6702
1546 2 10.6874 4.43074 19.6118
1074 2 13.7273 1.77405 19.3307
180 2 13.913 1.06668 21.2394
816 1 11.6217 4.36789 23.1292
1153 2 16.0263 1.21796 20.7382
1485 2 15.6011 1.8221 22.2036
2026 3 14.3579 1.26103 23.0651
169 2 17.2966 1.91754 19.8937
124 2 14.6126 2.40263 20.4502
552 3 18.4272 5.42075 21.0021
1322 2 16.8711 4.00068 20.369
1802 3 19.2898 5.59527 22.0005
1835 1 16.4391 4.09886 22.7288
367 3 17.9086 3.29873 19.4173
530 3 14.5372 4.99398 20.9914
556 3 15.3408 3.83542 20.8775
219 3 18.1604 1.63679 22.4436
493 3 18.065 2.74521 23.2645
746 3 20.8399 0.659438 22.7462
1743 1 18.8398 3.35354 21.2827
1397 2 23.4716 2.53204 20.9378
632 2 21.5765 2.35796 20.9107
725 2 20.6393 1.98261 22.5056
1118 3 23.6824 4.22822 20.9945
1308 2 21.0504 3.37409 23.6715
955 2 22.7013 3.05262 23.0963
1888 2 0.564273 0.868916 18.7768
1267 3 27.3452 3.2357 23.8723
1231 2 26.9666 1.61803 21.4099
551 3 26.4893 3.04345 20.898
1739 3 26.1439 3.44935 19.7609
1675 2 28.0012 0.70408 20.1972
1413 2 24.1619 1.02106 20.7318
1691 1 19.5304 7.22604 14.3767
2012 2 0.66424 1.03497 21.8068
703 3 24.8787 0.771133 21.9137
1454 3 0.461231 6.03035 20.3064
1654 1 2.7373 7.82926 18.7469
602 2 2.66007 4.90019 21.915
1596 1 1.45361 7.8302 21.8749
1406 3 4.76286 7.39347 22.3979
1877 2 3.89321 6.09727 22.3251
1582 2 3.7735 8.21184 21.4612
587 3 0.945595 9.10625 20.3202
1992 2 1.15691 9.57996 18.8155
738 3 3.08272 9.31237 22.4994
928 3 6.37942 5.46301 20.7629
1196 2 7.89335 5.58118 21.2849
1903 1 6.01941 5.75538 22.8602
1155 1 5.7433 7.49725 20.3051
1786 2 9.60876 5.67776 20.7979
567 2 7.24161 8.86243 20.9968
1478 1 7.52953 9.42608 23.5822
40 2 12.3733 8.95898 23.5721
1527 3 9.51407 6.11157 22.2588
1595 1 11.8181 7.52119 21.5415
538 2 10.7895 8.67264 20.2148
186 3 13.4774 7.86688 20.9079
32 3 9.65915 9.00704 20.9721
734 2 14.1417 5.39807 22.3327
1809 2 14.8959 8.0654 21.4836
435 2 13.3934 6.17938 20.3871
291 3 16.3367 7.90306 20.5989
1054 2 16.599 8.18462 19.1282
1753 1 18.5757 4.9921 18.8098
1547 2 15.7656 9.46506 21.1016
1494 2 17.4916 8.56263 23.2484
513 3 20.3576 6.10209 19.3638
1362 2 19.9893 4.75473 23.1314
460 1 19.5745 8.51611 23.5366
297 3 20.7991 8.45395 21.8696
1880 3 21.0786 9.44687 20.9177
664 1 21.6276 6.646 21.1016
925 3 21.4371 4.48016 22.8322
399 3 23.3871 5.08589 22.4382
1212 3 23.3154 6.61425 22.5668
173 3 22.5275 7.42605 23.1864
1590 2 21.7834 8.73155 22.9818
1600 2 24.5852 8.52113 21.0384
1032 2 26.0837 7.66174 20.4202
1757 1 24.1907 5.9738 20.5545
2003 3 28.1807 5.55795 22.695
1209 1 24.7168 8.05107 22.9748
1225 3 26.3292 6.4305 20.835
378 2 27.7234 5.69478 21.2443
362 1 26.0429 5.44582 23.5442
876 3 27.1295 9.44625 22.0237
979 3 3.94044 8.99016 19.964
1870 3 4.61217 8.64752 18.7811
383 1 28.181 10.8014 20.7016
1233 1 4.47862 10.8228 21.379
94 3 1.01064 12.5832 20.3087
777 3 0.531534 13.3773 21.3199
1462 2 28.3873 14.2954 22.3576
569 2 5.16558 13.9002 22.7182
781 2 10.5254 12.7809 18.8028
444 2 8.40063 8.35011 21.829
87 2 9.55919 9.79007 22.518
37 2 6.36999 11.1605 20.1633
481 2 9.68844 13.4627 21.0003
342 2 6.01206 11.5748 22.8319
1276 3 4.79121 12.5689 22.5463
1765 1 6.06004 13.7069 20.1103
1165 2 6.62036 10.4862 21.8606
1304 3 9.03245 12.6459 21.9272
1046 2 8.34427 11.4543 22.535
1555 2 13.5836 6.02552 15.3641
563 3 11.3329 9.58663 22.5702
1466 2 14.046 9.40366 21.1936
1598 1 10.7353 10.9079 20.7773
1520 2 13.338 10.96 21.6228
2004 1 11.6762 13.6609 22.4013
116 3 11.5767 11.1374 22.6617
900 2 13.0994 12.6175 20.5632
1535 3 13.9358 12.5155 22.0836
1863 1 23.6771 0.156526 14.3451
633 3 14.4199 12.9189 19.1889
1420 2 18.2158 11.6468 20.459
651 1 17.5596 13.3302 18.9232
433 1 15.4165 11.6322 20.7949
550 3 17.2798 12.353 21.4523
478 3 17.8201 13.0079 22.7603
560 2 19.8861 10.0345 21.5035
1994 3 19.5574 11.2108 21.1465
1246 3 21.9842 10.6309 23.56
7 1 21.6416 11.3151 20.5562
1410 3 22.6664 10.2734 22.2745
373 2 19.7924 11.9204 19.5981
1453 2 19.8894 13.044 20.8261
1240 1 19.962 11.6008 23.4101
1866 1 23.4401 12.3542 23.3811
1363 2 21.4858 13.2297 21.6922
119 2 27.8586 14.1082 24.0721
458 1 13.3049 7.35951 27.7896
1105 2 25.6365 9.37912 19.523
181 2 25.8638 9.74371 21.3499
1605 2 28.2807 9.26398 17.823
815 3 25.2462 12.4177 19.9897
844 3 24.1971 14.2313 21.7269
1964 2 24.2585 10.3104 22.4312
1050 3 25.2114 13.9156 22.6548
2021 2 24.2416 12.6678 21.3136
1915 2 26.1881 11.3492 20.4737
1284 1 26.1954 11.7029 22.5996
1767 3 3.70013 0.610955 26.7352
88 2 12.5197 14.2759 28.1145
187 3 2.35387 3.05603 24.3547
2044 1 1.36828 1.25935 27.0658
798 3 2.57164 4.44571 24.3949
1746 2 1.16575 3.66763 25.1592
967 1 4.5423 2.73371 26.9827
995 3 5.18457 4.5232 28.2016
1566 2 2.29185 3.03219 27.5652
332 2 13.9946 0.522058 25.7594
1173 2 8.789 0.984766 25.344
1332 3 8.42381 4.11113 28.4061
829 3 6.37124 3.09181 24.6888
623 3 8.07098 0.985228 24.0525
289 3 17.7995 5.39922 28.9247
465 3 8.33879 2.3358 24.1265
1186 3 5.7821 2.67696 25.7743
716 3 6.4654 3.83726 23.5891
1172 3 5.82858 4.67911 27.0771
194 2 9.02518 1.37208 26.9655
350 2 8.80213 2.71508 28.0487
1121 2 14.9164 4.58111 27.5017
456 2 13.1023 1.21873 24.1644
1966 2 10.1782 2.74226 25.9702
135 3 12.8471 2.73764 24.5024
717 1 12.9233 4.82548 25.6529
547 2 11.4752 2.80663 25.2143
1671 2 20.5378 6.8369 28.5174
1726 1 14.1645 1.93456 27.4927
2020 1 15.0351 2.07725 24.6003
565 2 20.5963 10.3126 27.6695
171 3 15.9111 3.81061 24.4288
261 2 17.5641 1.02774 24.7945
1357 2 17.4627 3.01186 24.5776
1441 1 16.9379 3.92715 26.9257
923 2 18.6049 1.72824 26.4933
50 1 19.4931 3.43213 25.3331
1426 1 19.5973 3.22977 28.2724
1443 1 22.1465 2.19292 25.9083
712 3 18.9615 5.1 26.2298
2031 3 20.0492 1.7729 26.3263
1460 3 22.531 3.25609 27.6596
397 2 24.4694 1.02951 27.7931
1052 2 23.967 4.03373 23.6836
977 3 24.1959 1.57551 25.6603
1205 2 17.1898 1.66283 27.7438
1086 1 22.6976 10.4178 27.9021
453 2 1.05026 3.66854 26.9647
488 2 25.6631 2.00625 26.3158
663 3 25.1462 4.05341 25.1387
1428 1 24.8076 3.99284 27.0947
419 1 25.4101 2.51988 23.7506
163 1 26.3944 2.0077 28.2127
735 3 27.954 4.15067 27.3291
1774 3 4.69701 8.52877 27.9139
1552 2 2.71252 5.95395 23.8367
334 2 2.33452 9.84145 23.4798
573 1 4.26693 8.68934 24.1516
1192 2 1.78319 7.75302 25.5911
963 3 1.38634 6.51368 24.6493
1481 2 1.84099 8.37955 27.1148
1060 3 1.48342 9.39366 26.0197
877 2 4.56041 9.0314 26.6032
1795 2 7.50754 4.94663 26.9712
722 2 8.29621 7.55204 24.996
285 2 8.5917 8.47188 27.2125
1901 3 7.12353 6.48505 24.6431
1821 2 7.90894 5.83571 25.8006
2015 1 6.45154 8.00646 26.4202
871 3 8.44448 8.8318 25.6807
941 2 5.59037 9.76102 25.4644
1171 3 7.5706 8.51925 28.5104
1003 2 14.8926 9.4832 23.9363
497 2 23.3489 14.0095 18.3468
1824 2 13.3192 5.91182 23.6477
946 2 13.8669 14.3919 26.7703
315 2 9.73126 8.55799 24.8947
70 2 13.7589 8.00645 24.3177
242 1 11.2231 6.88458 23.9316
778 3 10.0244 7.34001 27.9284
1953 3 12.5088 7.4042 25.7951
617 1 10.9582 8.76757 27.5965
841 2 13.3385 8.83047 26.1655
1119 2 18.2359 5.99219 27.2272