# LAMMPS data file written by OVITO Basic 3.7.11
2048 atoms
3 atom types
1.8142955017 30.5537044983 xlo xhi
1.8142955017 30.5537044983 ylo yhi
1.8142955017 30.5537044983 zlo zhi

Masses
 
            1   47.86700000             # Ti
            2   10.81000000             # B
            3   12.01100000             # C

Atoms  # atomic

1455 1 30.3466 3.99775 3.68396
380 3 5.07111 5.90518 4.55175
1501 2 4.47513 4.50356 4.8335
1782 2 3.42384 3.75335 5.66941
1785 1 3.37556 6.17879 5.83054
1204 3 6.05028 6.47108 3.84472
1351 2 2.36381 2.48609 5.54168
1940 2 2.72742 6.01596 2.17671
1187 2 11.5237 1.85732 14.8095
1264 2 10.2819 2.66716 5.78406
1794 2 8.79676 3.9779 5.07651
68 1 9.01702 4.17213 2.60432
1089 2 11.3875 2.92794 4.32771
1329 2 8.74032 5.4396 4.25387
511 3 10.3712 4.18275 4.42045
1041 2 11.429 4.87031 3.09448
1011 3 14.6847 2.94437 6.03892
100 2 15.1804 1.8569 5.00999
1159 1 12.1671 4.86861 5.50994
445 2 15.3804 5.77385 6.77817
1578 3 13.1195 4.93448 3.76768
1432 2 12.3307 6.0661 3.8744
1869 3 15.8654 2.61264 2.19189
1179 1 15.0948 5.66847 4.42621
395 2 19.3475 4.06255 2.36683
228 1 17.2511 4.10956 3.16867
278 2 19.1906 2.40917 3.06809
229 2 19.6916 6.02832 3.25299
1989 2 20.0438 6.15118 5.19546
239 2 16.3883 2.73355 6.64816
86 3 16.7499 5.10308 5.3442
922 1 19.7857 3.57066 5.55829
761 3 16.4605 6.06748 3.02379
973 3 20.309 6.5712 1.93238
457 2 17.4059 3.64355 5.94524
817 3 19.184 5.87845 6.75891
17 2 20.8358 2.64189 3.82468
1443 1 21.5304 4.83143 2.62134
120 2 25.0152 3.57396 5.32057
1625 2 23.3734 3.5701 5.39442
1037 2 22.4395 2.91674 3.74668
244 2 24.3329 4.00138 7.21623
1319 2 25.8774 5.1963 3.64594
501 2 24.1747 4.70487 4.57342
2031 3 23.4459 1.84778 2.32319
1346 3 30.1214 5.27209 6.50151
1460 3 26.1998 3.04038 4.55248
1981 2 2.58315 15.9967 4.92437
1941 3 27.7246 4.72592 6.0416
1289 3 29.018 5.75238 3.83655
434 2 29.13 5.18572 5.47781
1024 3 27.2946 3.55178 3.56305
1137 1 28.0394 2.29272 4.81271
310 2 27.6564 2.19922 2.47513
1682 2 26.7472 5.77726 6.13182
1702 3 25.8025 6.21085 2.5639
437 3 2.81827 7.14672 3.55502
1521 1 4.63147 9.34702 5.64971
1854 2 4.60872 11.0214 4.01738
247 2 2.13661 11.844 5.18991
1677 3 6.75692 10.7176 5.88103
117 3 3.1399 10.8656 4.32644
1715 3 5.97083 10.5078 4.80197
379 3 3.09795 7.84424 4.97187
1529 2 2.78131 9.31596 4.2583
1293 3 7.22889 6.94659 4.12657
871 3 8.71043 7.24305 3.97926
458 1 9.55306 10.2164 3.14678
1898 2 10.4113 9.72502 6.10477
832 2 9.1033 8.53966 4.7244
1183 3 10.8292 9.01322 4.67877
259 1 11.2689 7.49097 2.71457
1215 3 8.53457 9.88884 5.20108
1227 1 6.72453 11.5286 1.92303
450 2 15.5809 7.3252 2.71646
752 2 13.1213 6.62417 6.31178
1064 2 11.6908 10.0908 3.93302
557 1 12.4827 9.78538 6.15696
1573 3 12.6124 11.2556 3.77241
324 2 14.5677 8.69636 5.09229
822 2 14.5752 10.7562 5.9969
714 1 14.3092 10.0398 3.70226
45 2 13.2129 7.4379 3.10434
854 3 15.9281 10.8089 3.34823
318 2 14.9685 7.18231 6.29613
2025 3 14.5678 7.59079 3.96085
1572 3 28.0935 15.0768 13.6127
1470 1 17.9013 7.12103 2.16768
210 3 19.38 7.30555 4.41781
355 3 18.3346 9.68714 2.48926
1525 1 19.206 10.5564 4.10825
819 3 19.1228 8.44752 5.20649
1031 1 24.9339 7.20258 6.4945
507 3 22.8849 7.84129 2.35376
878 3 23.4384 7.35489 3.54956
1097 2 20.8965 9.07155 5.37466
375 2 23.4389 9.75899 4.23273
1749 3 23.6921 6.14592 4.40411
1320 2 23.1647 8.62214 6.34368
1697 3 24.393 8.90294 5.34048
1569 2 25.7391 8.55857 4.86315
1430 2 21.8267 7.77167 5.90679
492 1 25.2844 10.6864 2.12027
1909 2 21.9033 10.3026 4.26172
1884 2 30.2394 6.23844 3.4754
853 1 27.6465 7.26795 3.88053
521 3 26.9536 7.54634 5.80748
1665 3 2.36283 12.1533 3.67572
879 1 27.995 11.4942 2.72049
272 2 26.607 9.40451 3.37528
1674 1 26.3757 10.5235 5.1319
696 3 27.4627 9.02207 2.27312
1819 2 26.5715 8.83915 6.98534
1255 2 2.24526 9.18369 5.77681
1948 2 4.01798 15.6014 3.68816
646 3 5.00876 11.7794 2.87641
1456 2 10.5572 16.0723 13.3082
971 1 4.76136 12.7905 5.169
1826 2 5.71915 13.2663 3.22751
156 2 29.1089 14.8887 1.93694
1670 3 4.78747 14.4219 4.01984
1973 2 3.39668 14.8861 5.16458
575 3 29.2042 16.0207 13.5817
335 1 9.39242 12.9665 2.37958
708 3 7.40645 12.8828 3.41689
965 1 8.07479 12.1869 4.98473
422 2 8.06672 15.2037 6.53189
1228 1 7.94545 14.8469 3.4836
1671 2 10.1194 14.5763 4.7168
1707 3 9.32625 13.9922 5.85086
503 1 28.5328 4.61713 2.07384
1384 3 27.8101 14.676 12.1287
1185 2 13.2612 11.4432 5.0457
1606 2 10.6585 15.0862 2.77704
1928 2 15.6842 13.4528 2.97013
1684 2 14.1461 14.4915 5.35858
506 3 15.2319 14.2219 4.14687
212 2 30.3303 12.5442 2.34592
1039 2 14.1438 15.2274 3.37665
1693 2 15.0895 16.0527 4.85265
1292 1 13.6689 12.2869 2.0812
929 3 13.5392 14.0513 6.46156
1662 2 11.8746 13.8268 1.81974
2009 2 16.8474 12.1265 2.95416
916 3 18.8095 11.1187 5.85551
739 3 19.56 12.3378 5.96131
576 1 19.5755 13.6725 4.20044
1277 3 18.1933 12.0531 3.52312
1420 2 19.6501 12.2918 2.66803
631 3 15.6397 15.4484 9.52017
990 3 16.4605 15.5345 6.34945
1588 3 20.6234 15.5039 2.73319
421 3 17.6106 14.6102 6.03908
1719 1 23.8796 14.2192 3.55212
911 2 21.5298 14.9784 4.08603
1224 2 24.4943 12.1291 4.55003
1494 3 15.8636 1.94549 15.2138
238 1 23.353 11.2467 6.01956
1634 2 22.583 14.5135 5.4411
267 2 26.9097 14.8843 4.93444
1825 2 23.2628 15.9247 4.9595
1474 1 30.2994 12.7557 15.9319
1980 2 25.5812 12.4643 3.48504
1330 3 27.7109 12.1351 4.86398
1511 2 28.5009 15.2322 5.37477
164 3 28.8581 11.7412 14.7026
1040 2 26.3696 13.0172 4.94871
1958 2 29.051 12.5421 5.70173
1120 1 27.616 13.8918 3.45077
590 3 29.922 16.0497 5.88456
1461 2 15.3254 2.55642 3.65524
1703 3 26.3187 12.5345 2.02494
400 2 27.419 12.1512 15.0844
763 1 3.92087 4.07783 8.05276
192 3 4.70796 5.17123 9.76808
1207 3 5.40212 6.4192 9.49827
1644 3 3.25003 4.62068 10.0631
1560 3 1.91377 5.15798 7.73225
892 3 1.96698 5.45647 9.09041
874 2 4.10902 5.00092 11.2943
1190 1 2.30033 2.39944 10.2017
583 1 6.28324 1.83002 8.49623
1130 1 8.38299 3.56092 6.97805
1475 3 8.266 4.7613 8.63646
652 1 9.48093 3.06265 9.48459
891 3 8.83657 5.5219 7.67753
1414 1 10.5743 6.59795 7.94361
796 2 8.55613 4.7055 10.5664
542 3 10.9511 2.35045 11.3906
1820 3 27.012 7.8333 16.066
1829 3 11.1753 3.4442 8.68231
748 3 7.75687 3.28042 10.8062
522 3 6.69349 1.92164 6.66506
1924 3 12.1009 3.47729 7.52125
993 3 10.7812 4.47154 9.70731
1571 2 11.1266 3.60313 10.8108
634 2 13.3941 5.11919 8.63771
1371 2 14.8383 4.25594 6.83361
389 3 14.4238 4.077 8.37147
1311 2 13.502 3.09157 7.24095
374 1 14.1049 4.65054 10.7903
1436 2 11.2698 5.61074 10.6241
95 3 12.4894 6.17152 7.48325
293 3 14.4082 6.38314 9.14812
111 2 18.9712 2.20797 7.24285
1095 3 20.1875 3.12445 7.8717
1747 3 18.0949 5.03152 6.31972
1412 1 18.7488 4.3139 8.36644
1756 2 20.773 4.87894 7.5575
1063 2 19.1259 4.48072 11.4661
1533 3 18.5708 3.68096 10.3383
1777 2 20.9015 5.62702 9.17132
1066 1 22.1946 3.26275 7.60792
1878 3 25.7237 4.61307 6.68684
417 3 22.24 5.10947 8.42383
1725 1 26.5943 5.04827 8.46673
1232 1 28.8743 3.36171 7.27173
284 3 29.2573 2.88827 9.28717
49 2 27.5527 3.19663 8.83102
1861 1 26.2388 2.20315 7.2864
447 2 28.6869 4.10679 9.91775
37 2 29.361 5.75411 9.33849
207 2 2.28408 5.44111 11.2846
834 2 25.8299 3.68501 11.0551
1692 2 26.3247 2.78216 9.67666
1575 3 8.87092 2.14211 2.24791
1534 3 3.0829 9.83836 8.29012
311 2 3.76133 12.3608 9.28329
680 2 3.6176 9.12052 9.49908
679 3 2.9268 10.2265 7.05106
107 3 4.83025 7.82989 9.6953
2039 3 5.69097 7.87661 10.8449
1348 3 5.20199 12.0038 9.85285
481 2 3.56091 10.3239 10.5044
759 3 7.05142 8.62389 10.5392
924 2 4.31701 11.0401 7.44721
1124 2 7.64616 9.63861 6.65836
888 3 7.78333 8.88546 7.98612
1083 1 7.60823 7.15394 9.2482
1851 2 6.95166 9.41901 9.07012
1491 1 9.54259 8.86028 8.94816
697 3 10.6627 10.2668 7.37376
1514 3 9.76339 9.87983 10.6976
1022 2 11.3627 7.95947 10.0256
1690 1 7.64656 11.3677 10.5418
280 2 13.738 10.3931 7.71765
1689 2 15.3773 10.4322 7.90399
728 2 12.2294 10.8459 8.03712
810 2 13.0954 8.63919 10.0402
290 3 12.793 10.0583 9.29519
146 3 13.5097 11.2793 10.3367
873 1 13.9707 7.98038 8.14758
4 1 11.6089 10.3351 11.0705
1865 2 15.8668 6.43971 8.29451
720 3 16.7503 10.4881 7.63869
471 2 17.6644 11.4584 6.98253
2036 3 17.5697 8.68791 11.6299
512 2 15.3407 7.2522 10.196
1117 1 19.3979 9.50162 11.1035
314 1 18.247 7.41694 6.32575
858 3 17.0397 7.36212 8.43424
852 2 16.2991 8.82545 8.86415
753 3 21.3083 6.85445 10.1116
637 3 15.9261 8.57083 11.0308
698 3 20.7372 11.492 8.63495
172 3 24.8276 10.2943 7.62055
1372 1 22.2214 10.0766 8.64182
1729 3 20.9459 8.21303 9.4946
443 1 22.4616 7.13588 8.42477
1150 3 24.4967 7.9373 8.98559
1325 2 24.7902 9.02513 8.05439
137 3 25.1424 8.05752 11.6255
475 3 28.1133 8.90946 7.23235
833 2 27.8143 6.21959 9.62054
1840 2 25.1364 7.84706 10.1924
1378 1 27.7931 8.70958 10.9968
510 3 26.5085 6.84791 10.0192
1646 1 28.9083 10.6636 9.33342
1368 2 29.4144 9.08872 6.37711
340 3 28.9986 8.73516 8.32595
988 2 29.2888 7.57641 9.28563
1162 3 2.27248 10.74 10.9999
1477 3 1.88233 7.35227 11.2662
1356 2 29.6441 8.26407 12.0218
1643 3 27.8657 11.2853 11.2028
772 2 4.67194 12.8049 7.33324
446 2 5.04799 16.0975 7.90287
1377 2 28.165 14.8113 15.5349
1184 2 2.14226 12.3914 8.59958
1683 2 4.52175 14.7267 6.79622
1969 2 4.26974 15.2729 10.2515
933 3 5.4571 15.381 9.59968
12 1 30.4886 14.1305 7.12787
528 3 9.99428 16.0314 9.6853
824 2 8.92417 13.1548 9.7819
1803 2 9.23075 14.2533 7.35764
827 2 9.51923 15.1742 11.0204
1411 3 9.62022 13.1952 8.54182
322 2 6.61703 15.0916 10.6746
71 2 9.84975 12.2723 11.0485
269 3 7.59088 13.513 10.8309
1476 1 9.64946 12.0677 6.61386
1160 2 12.0673 12.443 6.39743
18 2 14.5908 13.1042 9.51757
412 3 13.4482 13.6592 8.98812
491 3 12.9274 13.2895 7.44018
1408 1 11.4507 14.711 8.43415
1818 2 14.0727 14.7389 10.1988
2000 1 14.5259 15.3756 7.59229
1252 2 15.9196 13.2507 10.5157
757 3 7.48374 16.0883 5.49377
416 2 19.4326 12.5224 8.93555
1640 1 17.142 11.2526 9.74878
1419 3 20.0014 14.7843 6.75862
1328 3 18.006 12.5179 7.96766
361 1 17.4898 14.3628 9.00014
568 2 18.7462 13.6674 6.80664
33 3 19.0282 13.1138 10.6314
1676 2 17.5991 13.3931 11.0911
954 2 20.0853 12.1014 10.9472
347 1 21.1307 13.1799 6.87024
1116 2 20.8346 10.9589 10.0598
594 3 21.7782 14.1611 8.92963
1603 2 24.0513 11.5468 8.84386
882 3 22.8857 12.4035 7.65477
113 3 22.8049 13.4635 8.92976
951 3 24.17 15.1422 9.8829
909 3 25.8937 15.347 6.11148
1848 3 25.0829 12.2953 9.55036
981 2 24.2825 13.5159 9.23524
368 1 21.9456 15.1345 10.9166
781 2 15.4306 8.87479 15.8916
968 1 25.8389 12.7584 7.65329
1104 2 28.1535 13.2948 7.39172
523 2 30.377 14.9645 11.6031
8 3 28.2451 12.3088 8.39461
737 3 29.576 12.2515 7.88963
863 1 26.8906 12.8481 10.3967
1808 2 26.3784 15.0782 7.6267
828 3 28.1124 14.7879 6.98095
640 3 27.8607 15.9753 7.66159
404 3 4.61292 2.21708 14.1636
960 1 6.81931 5.2232 11.3339
1383 3 7.82639 2.67536 2.86892
686 3 4.91221 4.57033 15.4999
1005 2 3.74733 5.85893 15.0743
1843 2 5.26722 3.45787 13.2786
703 3 2.47722 5.55669 14.1972
1391 3 4.45606 4.3746 12.524
167 2 9.62642 1.8462 14.4328
1145 2 6.89854 2.98121 12.3979
281 2 7.05665 3.9446 13.8971
860 2 6.76385 5.83077 14.0749
1926 3 7.13255 3.96221 15.6788
388 1 9.33577 3.15574 12.3927
1463 3 9.18082 5.63787 11.6284
1210 1 9.29111 5.26708 15.0904
1971 3 9.44282 4.94196 13.0888
1993 3 13.8167 5.89645 12.1352
1624 2 12.5637 6.41047 11.4521
1955 2 14.0221 2.75075 11.878
653 1 13.7788 2.39154 14.138
353 3 15.3725 2.27688 11.1359
802 1 14.4736 5.59091 14.2116
596 2 16.223 3.55399 15.4252
919 3 15.186 6.34605 12.2416
297 3 16.3995 4.9219 14.9916
1961 2 16.8599 6.27648 15.2666
1451 2 12.1681 2.78121 12.3944
732 1 16.3686 2.28629 13.0967
628 2 19.465 5.08858 15.704
606 2 17.6111 4.89838 11.075
1672 3 16.9543 6.19492 11.6891
1902 1 17.977 4.68369 13.8027
121 2 18.418 2.53055 13.4938
1556 2 20.1383 5.90579 13.8283
1126 1 20.3452 3.28367 14.2232
1239 1 18.7583 3.22026 15.7872
90 3 28.9903 14.5344 11.3584
1316 2 20.1818 4.9049 12.2976
904 2 20.4438 5.87824 10.7111
839 2 18.1362 7.12854 11.9233
151 2 15.0214 7.16249 15.9947
1797 2 23.7925 1.98712 14.2826
358 2 25.3522 2.61915 14.0473
1915 2 26.2872 4.26615 14.0489
1832 1 24.6827 7.06669 14.4682
604 2 22.0624 6.48726 14.1085
537 3 25.0117 4.98879 14.8028
476 1 30.3489 3.77733 15.8644
1019 3 29.8016 4.18625 11.6225
1026 2 26.4194 3.57602 12.6533
856 2 29.9178 5.67677 13.6514
1739 3 29.2367 5.10158 12.4792
1216 2 26.8056 1.94377 13.3339
1087 2 28.0163 3.35466 15.837
159 2 18.7155 15.7392 7.00767
746 3 28.0139 2.34829 14.4792
835 2 6.09422 7.88089 12.4569
1269 2 6.05631 10.6942 15.5036
1110 3 2.37933 8.51506 14.3708
785 1 3.50359 7.02333 12.7859
1614 2 6.14563 9.11707 14.8787
436 1 2.5853 9.63917 12.5658
601 3 6.3436 6.97146 13.365
2006 3 3.19756 9.89613 14.7041
1687 2 4.98971 10.2751 14.259
1734 3 6.33222 10.9093 14.1808
1295 1 7.11163 2.13344 14.5617
342 2 2.8866 7.56618 15.4017
1698 1 5.40481 6.92812 15.6158
1157 1 8.66887 8.59826 11.8713
1601 2 9.03425 10.9373 11.8372
693 3 13.5985 6.6446 15.7912
567 2 9.52371 6.41893 12.8349
1012 1 7.91688 8.04051 14.4809
1788 2 10.1847 9.83183 12.9039
592 1 26.2949 15.7406 14.527
1823 3 10.8118 8.82732 15.3167
1654 1 10.9753 10.7243 15.6435
1559 3 12.1659 8.23748 11.433
1151 3 11.4114 10.8 13.3225
1977 1 11.7136 8.49607 13.4717
186 3 12.4458 6.76142 15.0633
927 2 15.2884 11.4119 12.3755
1229 3 13.8687 11.4847 11.4693
304 2 13.2053 10.7503 16.1546
1459 3 14.4391 9.60925 14.9606
40 2 10.7211 7.25717 15.3655
1075 3 15.8504 7.64328 12.221
685 3 14.8026 10.2833 13.7378
26 2 21.1813 7.72635 13.236
1793 3 16.6684 7.54758 15.9742
473 3 7.85648 15.9718 10.7195
1480 2 16.3917 11.2714 13.572
464 1 16.4433 8.85117 13.8819
1006 3 19.7693 7.30914 12.4003
1450 2 20.8447 10.0124 13.4563
54 2 19.8296 8.56814 13.0389
1805 3 17.6006 10.8745 14.2818
188 3 22.8413 7.63048 15.3425
906 2 21.4232 10.7956 11.6859
548 1 21.0785 9.30216 15.5856
1373 3 23.4067 10.4229 15.6365
1298 3 26.176 8.49582 12.3165
875 2 23.6896 8.74292 15.8272
360 2 29.7415 10.8943 11.4797
122 1 29.8252 9.73054 15.0627
72 2 27.5256 7.19864 14.9033
1413 2 26.9491 7.8982 13.4924
1038 2 29.6104 11.5911 13.1638
867 2 28.8553 9.68493 12.5409
59 1 27.1373 10.5781 13.5015
610 3 26.4832 14.4858 11.9372
849 2 3.31991 15.3738 11.8377
123 1 3.0031 13.2299 11.3578
1500 2 5.03308 14.4507 12.709
876 3 3.50942 12.6251 15.9585
526 2 5.4877 15.7343 14.0337
283 3 3.54297 13.8189 15.5518
764 1 3.26637 15.3874 14.2872
1088 3 5.64067 12.0423 11.1706
1009 3 5.03528 12.7225 12.0483
1701 3 10.2593 15.0662 12.346
994 3 11.7224 4.14726 15.9972
250 3 26.5214 12.8284 16.2076
1158 3 17.7534 15.875 10.0589
1561 1 7.12388 12.2734 13.023
420 1 7.51626 16.0987 14.4054
1811 3 7.52625 14.1339 12.0048
1288 2 9.47727 11.2335 13.4378
1611 2 8.83356 12.2117 14.7446
1036 2 8.61341 14.0362 14.1702
118 1 10.7359 13.5235 13.4213
1970 3 8.37561 15.1548 15.9503
448 2 3.365 15.7452 7.69449
701 2 12.0181 15.225 14.4368
1181 3 14.869 14.5778 11.5713
1141 2 14.2786 14.652 15.3258
1128 3 4.38461 2.48067 9.51974
69 2 12.667 13.7359 15.3359
893 1 13.5128 11.873 13.9732
1294 3 14.0057 13.6744 13.994
1965 2 14.8255 13.875 12.7176
1771 3 21.0286 14.2163 12.9413
1393 1 16.752 15.6282 11.8857
1290 3 18.1408 15.717 13.4835
498 1 18.1494 12.4221 13.2402
1723 3 17.971 14.4032 13.9283
1638 2 18.3176 11.5469 15.4561
1479 2 21.2823 12.4156 12.2379
1988 2 19.7562 12.6484 15.27
1122 3 18.5296 13.691 15.0116
1655 3 20.5008 15.2635 12.4286
287 2 20.8391 13.5775 14.2058
1300 1 23.114 15.3019 15.5545
232 2 21.2917 12.011 14.8959
1065 3 21.4191 11.2866 13.5181
206 3 25.177 14.5359 12.2842
125 2 24.0285 13.3488 14.6745
1895 3 24.5963 13.8345 13.3647
1822 3 22.6418 13.1086 15.2333
370 2 23.7507 11.9172 15.7506
569 2 9.3106 8.92907 15.7808
1092 2 17.9871 8.1677 16.1485
264 1 20.8823 6.56352 15.9805
84 2 16.9677 1.89851 16.131
692 2 3.16522 4.14753 2.0163
166 3 28.9547 13.2623 2.15638
1685 3 15.5899 10.9309 1.83573
603 1 4.97937 3.37059 20.0341
200 3 5.49698 3.50053 18.1994
1517 2 4.65759 4.97105 18.0471
241 2 2.35365 6.05485 18.1526
579 3 2.72963 3.42526 17.6729
1406 3 3.20319 6.67398 16.5702
1409 2 3.00973 5.06184 17.0963
2012 2 2.27066 3.50874 19.4224
770 3 6.07655 6.77279 18.7017
143 3 6.21898 5.95545 17.619
1809 2 6.7332 6.22278 19.9384
1404 2 2.97638 1.98165 18.2341
784 2 11.2832 5.41095 17.1544
1837 2 9.40143 3.50335 19.9103
1872 3 9.86354 3.31781 18.1418
1602 2 10.5961 3.25425 16.617
666 2 9.68404 5.34119 19.9469
1060 3 10.1833 6.53674 20.9287
538 2 12.577 12.4034 16.4863
31 2 7.50174 3.4323 20.9167
768 3 8.0212 4.82925 16.8119
674 2 6.93893 5.54564 16.2099
729 1 7.92044 2.51617 17.9995
41 2 27.8964 16.0545 26.0901
779 1 11.3249 3.55923 20.091
1013 3 12.1192 4.76158 18.3075
345 2 13.3313 4.6684 19.3132
556 3 14.567 3.72171 18.7064
296 2 16.204 3.78967 19.0566
1598 1 13.6731 4.77718 17.1686
1922 3 14.6755 2.95591 17.3979
1522 2 2.51995 2.24196 24.6187
497 2 1.89464 15.4764 16.48
1375 2 8.791 10.4702 16.9868
162 1 16.0794 2.84248 21.428
935 2 17.0504 4.63491 16.5761
1799 2 16.2001 5.57159 17.6857
1695 3 20.1287 4.00996 19.0613
900 2 20.5981 5.23639 17.8677
300 1 18.3693 4.97394 18.4667
642 3 17.1631 2.47501 19.3129
1397 2 17.0471 3.32119 17.7245
1355 3 19.2417 6.44358 20.3227
366 1 19.8902 2.07737 18.3419
742 3 21.3333 4.83176 19.4333
754 3 24.7263 6.723 19.2049
1708 3 23.0904 4.30968 17.7432
551 3 25.3145 2.6186 19.3399
1746 2 22.2341 3.25244 18.5665
1370 2 24.1598 3.61499 18.7508
182 2 25.1796 5.29983 18.9637
190 3 22.069 4.91545 17.0913
1830 3 25.8325 3.97429 20.3572
131 1 24.7974 2.55822 16.8114
1217 3 21.9915 4.53203 20.8131
1007 1 22.4047 2.2677 16.5296
1897 3 30.2555 4.39313 20.7656
187 3 28.8561 3.01184 20.4563
89 1 26.7889 2.39813 20.9868
1987 3 29.6383 5.78089 17.1747
429 1 28.7782 5.36327 19.7673
21 1 27.0322 5.74931 16.3324
1018 1 29.593 2.09447 18.4437
1073 3 26.5756 5.6834 18.9104
384 3 28.8638 4.47748 16.9343
344 2 1.96769 6.52003 19.9332
1441 1 6.43492 8.74863 18.5081
1859 2 2.28554 9.95887 19.9635
28 3 3.08421 6.49817 21.093
1276 3 4.55423 9.63846 18.9484
1347 3 3.63035 10.7286 19.3173
1431 2 1.96527 7.53594 21.8357
5 1 5.55681 9.80797 20.8388
539 1 3.90488 11.0344 17.238
1765 1 11.2882 6.60221 19.2435
716 3 5.63924 1.89438 22.2081
354 3 11.028 10.3677 20.4269
1374 2 8.50702 11.2138 20.5357
444 2 9.35622 9.35342 21.532
135 3 10.4124 6.78706 17.3355
1017 2 7.55182 9.40992 16.5752
691 3 12.299 8.36012 19.5128
224 2 11.9531 9.72499 18.789
1115 1 13.9568 7.1078 19.0593
1366 3 13.8483 9.91312 17.4508
1751 3 12.3918 10.3079 17.4756
331 3 14.9766 9.38634 17.9271
383 1 12.517 8.54429 16.4453
1753 1 16.0081 8.14004 21.0718
862 2 15.6578 15.9723 25.4869
1759 3 15.7492 8.73658 18.6643
1827 2 18.2922 10.0417 19.1563
1421 1 18.0082 7.72733 18.3523
1741 1 20.5251 9.68808 18.148
727 3 19.4785 8.53276 16.5397
25 3 19.2455 11.1041 19.3213
549 2 5.56201 16.0403 28.2481
917 3 18.5261 9.59698 17.206
1858 2 20.5174 11.108 20.5907
455 3 17.9245 7.07107 20.4771
1202 1 23.5087 7.02208 17.3716
921 3 23.5893 7.42389 19.6315
1605 2 25.0965 8.62583 17.1585
1438 3 21.6702 10.3129 20.7039
1273 3 22.6951 8.39191 19.1691
357 1 23.5656 9.89965 17.7833
1105 2 26.2175 9.98122 17.7564
1691 1 25.7811 11.0734 16.1817
931 3 25.3619 11.3373 18.4646
1705 2 22.6997 7.66545 20.8084
1392 3 21.5372 2.31443 25.8482
1422 3 30.176 9.07768 18.8075
560 2 27.0976 8.06128 18.6521
1660 3 29.689 9.49023 17.7485
295 3 26.0163 7.37287 19.2926
1056 3 29.6436 7.708 19.7256
1410 3 28.1488 7.69696 19.5915
991 1 27.6709 10.5033 19.2304
513 3 26.7007 8.7217 17.0228
1943 2 30.0359 10.9606 17.058
2021 2 3.30734 15.4084 19.2476
2037 3 5.47386 11.7616 16.4815
1596 1 4.75731 15.2489 16.7488
845 2 4.13234 13.7455 18.9175
1504 2 4.16691 12.1312 19.7499
1907 1 5.19842 14.4018 20.4859
1221 2 4.87689 12.946 17.1916
1483 3 5.66391 12.0951 19.7676
702 3 2.20091 15.7147 20.3913
1106 2 7.59672 13.6256 16.7809
1870 3 6.66654 12.9353 19.9978
2034 3 6.26958 13.0513 16.7991
1304 3 9.27375 13.1677 17.2465
999 3 11.2647 12.6166 17.0003
1415 1 11.0493 11.8452 19.1035
1004 1 10.7191 14.5936 17.6269
1274 3 6.13534 8.65948 16.3075
633 3 15.593 15.3883 17.149
1136 2 12.0714 14.5963 19.7879
1165 2 12.8275 13.1833 19.0951
1072 3 14.332 13.4026 19.4166
263 2 15.9822 13.594 19.0835
1668 1 14.4432 15.3745 18.621
273 2 16.4874 12.6652 20.5016
116 3 16.3843 14.7058 18.1497
157 2 19.3579 13.1194 17.8241
848 2 19.6103 14.6951 17.485
695 3 18.7953 12.2893 18.8104
950 1 17.9174 14.1352 19.4672
430 2 23.5923 15.6335 29.9945
1142 3 21.4452 15.362 20.5739
1322 2 20.8389 4.36236 16.2476
165 2 12.756 15.1385 21.173
7 1 23.5581 11.2436 20.1714
581 1 21.3621 13.1578 16.7755
1576 3 21.4397 15.6634 19.1748
133 2 21.3724 15.3714 17.6261
1607 1 24.935 13.0934 17.2816
1880 3 22.3836 12.81 19.7615
1912 3 23.1817 13.2847 18.8247
865 2 22.7178 14.6069 18.2779
974 2 6.802 16.0114 22.2351
676 2 25.0306 15.6287 16.838
1984 3 26.5132 15.226 20.9885
844 3 26.3395 14.6777 18.2156
1182 1 30.1349 14.4848 18.4248
1519 1 28.2707 12.8659 17.547
1050 3 30.2204 12.1658 18.1596
1612 2 29.4946 12.3254 19.6007
1599 1 25.9927 12.5854 19.9948
777 3 29.1826 13.4527 20.726
715 3 27.9225 13.2597 19.6988
240 2 26.7955 14.5282 19.6061
736 3 12.8267 1.91378 21.3882
1966 2 4.7032 6.70966 23.2972
1205 2 3.90917 5.03287 23.5658
1774 3 2.72456 3.54362 20.9014
1143 1 4.04871 3.29769 22.5921
176 2 5.54603 5.1452 22.1986
32 3 4.27107 6.05778 24.8708
1964 2 7.34094 4.07839 22.4295
2004 1 6.39208 6.5798 24.6139
202 2 4.31004 6.05512 21.7974
1417 2 2.5344 3.85709 25.3123
252 3 3.79202 16.1922 25.823
1214 2 2.73466 5.47149 25.1505
406 2 26.5802 15.3828 27.1854
643 3 7.12555 4.87137 20.5226
1032 2 8.20602 2.14673 23.3119
963 3 8.55048 3.67125 23.5242
1121 2 9.81307 4.37734 25.4427
1424 3 10.1284 3.53021 23.8587
1003 2 8.36553 5.10204 24.4121
1967 3 10.8781 4.66792 24.3921
61 3 7.06259 2.34882 21.8993
1080 3 27.5923 13.8072 28.6668
561 2 14.1373 6.42834 22.207
582 2 12.2939 5.05354 24.1732
1493 3 13.1937 5.44532 23.0813
1877 2 11.3134 2.46967 24.2668
285 2 14.3893 5.16426 24.0915
593 3 15.2162 6.0004 26.0201
717 3 12.5789 2.00491 24.8
1852 3 29.7346 11.9581 27.59
1308 2 20.5176 2.55889 21.8991
547 2 16.663 2.47717 23.348
670 3 15.8702 5.28815 23.5714
289 3 15.7254 4.159 22.8102
1426 1 19.8854 4.53987 21.1094
110 2 19.7239 6.62707 22.9477
317 1 19.8198 3.6578 23.8016
180 2 19.3584 6.09305 24.9822
1735 3 18.9996 2.74727 21.9492
136 3 20.6917 5.9263 24.0821
1301 1 16.5347 7.1228 24.376
1821 2 18.1301 5.07195 27.3099
1171 3 18.0372 2.35788 22.9403
1428 1 23.9657 4.23556 21.1529
1197 2 22.1243 3.46806 21.8192
734 3 25.1218 1.80353 24.1887
419 1 22.2321 5.977 22.6326
319 2 22.8011 3.25639 23.4155
1249 3 24.3553 4.88162 23.1977
820 3 24.82 5.57519 24.444
1590 2 21.7148 5.13496 25.186
1471 2 23.6534 6.69165 23.8166
2033 3 24.0279 2.18517 23.7354
312 1 1.90238 5.49776 22.3818
1070 1 26.1561 3.81935 24.3256
808 2 29.1838 3.04057 23.073
976 3 28.4427 5.41246 22.1515
1497 3 30.272 3.13161 24.0144
584 3 27.2238 2.96857 22.9779
378 2 27.9181 4.15826 22.5842
1866 1 28.9483 4.45186 24.9081
587 3 2.1005 10.5965 21.3596
181 2 2.98148 6.89535 24.0261
710 1 4.36496 8.90716 24.1223
1327 2 2.21794 8.41933 23.1247
1976 2 3.4509 10.2361 26.0571
2015 3 5.91182 8.43556 26.146
1903 1 6.12394 10.7469 24.4584
766 3 5.25571 10.3116 22.6975
738 3 9.95477 7.84279 21.3686
13 3 7.93229 9.9453 21.5162
1196 2 9.87829 10.9652 21.4086
478 3 7.11497 8.16992 26.3585
688 1 9.92562 10.7181 23.9363
223 2 11.4771 8.97048 20.4549
1054 2 12.2196 9.19991 23.1893
334 3 14.3235 6.42707 20.7366
1401 3 11.7991 8.92341 24.7094
1170 1 13.4338 7.94924 24.5214
1867 2 15.9507 10.4169 22.1048
1362 2 15.7927 9.6998 23.5892
747 1 13.8834 10.6727 22.2836
975 2 14.407 9.30897 26.255
1975 2 14.7452 9.92246 24.7985
664 1 18.7782 9.02956 20.8978
1361 2 17.6157 9.67111 23.206
38 2 17.6391 7.1541 22.1637
1218 1 20.4751 8.76888 24.1205
726 2 20.8015 7.18125 21.4507
231 3 17.1381 8.41256 23.1494
245 2 21.1102 11.2926 25.5474
1278 2 18.812 11.3495 23.5324
271 3 19.6372 7.89418 22.337
1513 3 18.616 11.8472 22.1424
62 3 19.6222 10.6166 24.6773
1212 3 23.6501 10.4105 22.2203
1256 2 25.0339 10.8951 21.76
565 2 22.71 9.60957 21.5796
920 3 22.1874 9.47589 24.853
2003 3 23.0435 8.12348 22.1917
735 3 25.2564 7.22871 23.3026
788 1 23.9381 9.2109 23.8265
1600 2 24.3943 10.7181 25.902
209 1 26.4854 5.89938 21.396
725 2 27.1892 9.36902 25.0965
185 3 26.4901 10.9554 21.2916
1246 3 26.5714 7.38995 23.2833
399 3 26.9311 8.81689 23.9464
1714 3 29.1721 8.01655 22.5819
1260 2 27.9364 7.20903 22.8481
2030 2 2.05566 10.4308 25.1093
1990 1 30.2081 8.39096 25.1266
362 1 28.7016 10.2585 23.3155
1002 3 29.3622 10.1963 25.6889
67 3 30.0212 11.2661 22.2817
337 2 4.93531 12.5167 22.9647
1382 1 2.49708 13.2477 21.1908
801 2 2.30292 12.5565 24.5295
1284 1 3.27717 10.9496 23.1565
1950 3 2.71231 14.3213 22.985
1467 3 4.27009 12.0554 24.8012
1908 2 1.868 14.306 24.3848
257 3 3.88607 13.4625 23.1264
614 2 6.68631 15.0363 24.4479
479 2 4.27661 14.8352 25.7637
1998 3 5.01944 13.2269 25.5303
918 3 5.85775 14.3071 25.4342
220 1 4.28917 16.0074 23.1628
1057 3 10.0429 15.7501 24.1433
1666 1 7.05804 11.9192 21.9034
986 3 8.20256 12.3539 23.8573
1815 3 8.96689 13.0253 22.7754
1010 3 9.91476 11.8921 22.4866
938 1 10.4331 13.5624 24.3091
1893 3 9.75535 15.584 25.5915
1129 3 9.93089 12.2125 25.4709
641 2 8.3997 12.1989 25.3004
1724 2 5.78241 3.68426 16.6122
1369 1 16.2171 12.1642 23.4783
1334 3 15.5001 16.1674 20.7648
1472 3 15.482 11.4325 21.2166
426 2 12.4778 13.1362 22.6967
104 3 13.9354 12.9874 23.1294
433 1 14.7305 14.2428 21.5014
1864 1 13.4223 12.2236 26.025
2038 3 14.8351 14.7553 24.9754
1069 2 14.9109 13.5265 24.0454
373 2 16.221 14.2628 23.0968
1733 3 18.6747 14.3359 21.9516
883 2 17.7204 13.6481 23.6869
1769 1 20.4588 15.4855 22.2572
751 3 17.9051 12.9913 21.6244
266 3 19.8508 11.2607 21.9513
1554 2 19.2571 11.7167 25.4277
709 2 19.5739 13.7245 24.0668
724 2 20.5306 12.6284 22.8411
279 2 19.5492 15.2288 24.6831
1302 2 21.6767 13.9039 20.9046
629 2 24.4125 14.341 25.0043
872 1 22.1461 13.2188 24.8137
898 3 25.4704 13.0982 25.0079
173 3 21.816 13.6234 22.5978
1209 1 23.764 14.634 22.5677
1453 3 24.0769 15.8343 24.1914
1385 1 28.5578 16.0421 21.7008
1631 2 26.1691 13.2982 23.5287
1939 3 29.8299 14.4258 25.678
1888 2 26.6729 12.18 22.1029
490 3 26.9254 11.6668 23.9004
1925 1 28.4168 13.2792 24.7462
2008 3 27.8381 15.368 24.5583
1639 2 19.966 14.8052 30.2447
15 2 25.6512 13.9137 21.9295
1542 1 3.52218 14.8311 30.0184
140 1 13.8448 1.88741 19.355
1767 3 4.44104 3.33197 28.4226
1527 3 4.655 3.51551 29.9924
1468 2 2.68474 2.60079 30.4121
1883 2 4.44576 3.11125 26.9537
1582 2 6.19783 3.57804 29.9862
1595 1 4.49009 5.44451 27.0071
1067 3 3.09557 5.74149 29.6549
952 2 2.19034 6.3089 26.6204
431 1 29.702 14.1939 28.6166
705 1 8.8762 3.98325 27.4026
608 2 7.06379 4.68982 29.0402
868 2 6.84176 4.61217 27.4526
315 2 8.45612 6.11647 26.763
1795 2 10.8903 5.54341 27.3465
1710 2 6.104 3.37809 28.0726
650 3 7.79607 5.08276 25.8527
1211 3 11.2432 5.21208 30.3181
690 3 11.7152 6.34656 29.6271
332 2 10.798 4.49812 29.068
1257 2 18.4821 15.9648 26.952
1389 2 16.2386 3.6925 29.4443
152 3 12.0375 6.46949 27.1558
518 1 17.6084 15.9062 22.6975
1439 1 13.1582 4.52725 26.4818
248 1 13.3736 4.17016 29.6698
124 2 11.6222 3.21206 28.4195
1845 2 13.6001 2.55932 27.9595
294 3 15.0668 3.07345 28.2807
493 3 16.3624 2.92966 27.5772
1742 2 13.7318 2.60136 25.586
341 3 12.7236 5.93076 28.6951
1904 3 18.7987 5.15427 25.9458
1812 2 18.6662 4.65011 28.6749
163 1 19.5701 6.54974 27.0929
346 2 19.4551 4.32246 27.1674
658 2 15.8565 1.84371 26.6369
405 3 16.9172 4.28297 28.0144
1800 3 19.4513 3.39101 28.3086
1726 1 18.3584 2.65161 29.8209
602 2 25.1177 4.83909 26.0613
756 2 21.9782 3.39839 24.6619
1482 1 24.2596 6.51307 30.3187
886 2 24.011 4.88465 28.4411
611 3 23.8092 4.65131 26.9535
1123 3 24.8861 3.9777 29.5166
415 2 24.4685 2.56232 29.8854
619 3 23.0184 4.80142 25.7109
1539 3 22.2545 5.38113 29.4074
1510 3 21.014 5.43807 29.6597
1231 2 26.8604 5.2521 25.9548
1367 1 30.4462 5.29382 28.4678
1786 2 28.3689 4.99117 27.0426
595 2 28.5113 3.60472 28.0556
1562 1 27.213 1.98311 29.2856
910 3 29.2167 3.64413 26.9228
505 1 26.4225 4.75157 28.3153
327 3 28.5337 6.25498 28.8914
663 3 28.8465 1.98542 21.3123
1675 2 29.476 6.20452 26.354
1376 2 27.3066 6.83415 27.75
707 3 6.66997 10.9039 27.1261
92 2 5.43957 9.98255 26.302
1332 3 5.51553 6.63811 28.9361
778 3 2.50292 9.68137 26.9989
1923 3 4.14968 6.38461 28.7921
1881 1 2.59195 9.86367 28.7718
194 2 6.49264 6.2537 28.1105
558 3 8.31497 7.6442 26.987
552 3 10.4239 9.06969 30.3602
1448 2 6.12919 11.9988 28.0738
1615 2 7.97633 10.1329 28.3238
1462 2 8.30066 9.19165 26.9627
35 2 9.63264 10.2784 29.1406
1696 1 11.1758 11.1394 28.4994
815 3 10.4746 11.0311 26.4188
99 3 8.8398 11.3761 30.0259
617 1 10.0472 8.34042 28.2519
1547 2 11.1348 9.82927 25.8105
890 3 26.8812 11.2731 26.8915
599 3 11.6373 8.90929 27.2998
1390 3 12.804 12.7696 28.5066
1394 2 13.1576 10.056 26.8927
588 3 14.4604 7.05637 26.1895
1546 2 12.8089 7.8284 26.8577
550 3 14.4687 10.9128 27.3221
797 1 15.0273 9.2852 28.5809
10 3 16.3596 8.15353 30.3873
233 3 20.1047 8.1709 28.1797
712 3 18.8825 11.6277 27.2774
204 2 17.1681 9.02384 28.1826
1730 1 19.0134 10.0521 29.054
923 2 20.5488 7.10322 29.0609
841 2 16.5565 11.1624 28.9224