# LAMMPS data file written by OVITO Basic 3.7.11
2048 atoms
3 atom types
-0.0925164359 28.8319254325 xlo xhi
-0.0925164359 28.8319254325 ylo yhi
-0.0925164359 28.8319254325 zlo zhi

Masses
 
            1   47.86700000             # Ti
            2   10.81000000             # B
            3   12.01100000             # C

Atoms  # atomic

1990 1 4.47766 2.23749 1.6553
70 3 1.78176 3.84894 3.49303
1923 3 3.11548 3.20269 3.03223
718 3 0.732047 3.0835 3.58186
1332 3 4.45013 3.5702 3.41923
1773 3 2.74777 0.826414 1.87871
689 3 2.23725 0.254269 2.92981
1070 1 0.0403409 0.787617 2.85871
1852 3 1.871 8.27653 0.426895
67 3 4.51757 3.76918 0.148785
335 1 7.95426 13.6671 0.482106
155 1 23.8252 14.0581 11.5395
1854 2 7.26443 4.03816 3.19939
871 3 8.01113 2.87576 4.11882
432 3 5.79059 3.3285 3.20447
1950 3 9.37076 12.0336 0.109165
6 1 8.23709 0.652753 3.29184
1293 3 5.85749 0.896526 3.70576
650 3 7.95862 2.60237 1.16227
1173 2 9.24827 2.39924 4.89724
458 1 6.76726 4.19729 0.360414
259 1 9.47501 3.2903 2.4895
1937 2 11.0663 0.114581 3.39399
1193 3 11.5781 1.13938 2.36393
1318 1 13.5066 0.765823 3.07556
63 2 13.3925 2.49957 4.47209
1292 1 12.7709 3.32026 2.1071
1688 3 13.7864 3.86564 4.58412
197 2 12.2818 1.21682 4.48984
1575 3 14.7297 3.50109 1.14729
1776 2 11.4131 2.10295 0.915533
1089 2 11.2902 0.0514968 1.1302
1264 2 15.011 4.91395 0.874588
493 3 14.8319 2.43826 1.99939
228 1 15.9936 3.42675 3.63659
1531 2 18.3618 3.03033 3.71007
1359 3 17.689 3.85769 2.38787
1485 2 15.5803 0.987202 1.82616
1713 3 17.8507 3.31905 1.0627
1443 1 19.5112 4.65356 1.75208
111 2 20.8866 2.78095 4.87328
401 2 19.9389 0.7561 4.2016
1006 3 21.5365 3.27459 3.50106
105 3 27.9914 10.4329 11.1272
847 3 23.624 1.31965 5.44827
1921 3 22.7779 0.802706 4.48624
1536 2 22.4339 1.8355 2.96118
1488 3 19.8614 2.20178 3.73789
117 3 21.2967 1.99335 0.464604
278 2 22.4769 2.40972 1.08966
839 2 22.3129 4.38763 2.45059
1652 1 20.5653 -0.0459096 0.689411
76 1 23.9165 3.92955 1.11222
305 2 28.1454 3.55097 3.21305
328 2 26.3777 2.43961 1.86379
705 3 26.848 3.93057 2.91642
57 1 26.6993 0.537903 4.45807
402 2 26.6125 0.396387 2.20832
1260 2 26.9237 4.53453 1.46802
321 3 17.3292 14.0343 13.1786
124 2 1.24708 6.51307 3.43562
735 3 1.9566 5.24557 3.66775
573 3 0.912343 7.65815 2.88857
832 2 0.500585 7.70439 1.39089
524 2 1.49598 8.9585 3.308
442 3 28.4051 6.65216 0.933802
304 2 10.3544 14.4917 13.4496
1693 2 18.6581 14.4441 12.5145
660 3 4.69276 -0.107202 6.53876
1129 3 7.94242 5.18047 2.45861
192 3 6.3603 7.80748 1.91899
332 3 7.28625 7.1396 0.962179
1211 3 7.65705 5.84856 1.22366
1227 1 5.17907 6.57131 0.0211977
1846 3 5.6238 7.45832 2.88222
1414 1 5.6451 8.82104 4.66534
1038 3 11.7692 5.65751 0.935836
465 3 11.5798 4.86936 2.22016
1971 3 10.3412 8.08271 1.63089
1521 1 13.0974 7.15354 0.0751502
824 2 13.148 8.89935 2.39727
1559 3 12.4638 9.12943 3.81489
653 1 11.3277 6.9438 3.62862
815 3 11.0105 7.11308 0.908035
893 1 14.9715 6.05866 3.76401
858 3 12.8901 8.90342 0.944234
571 3 18.0717 0.372256 2.01822
1157 3 17.003 6.06302 4.57674
2004 1 17.0147 5.98634 0.516565
152 3 16.7202 7.18443 3.82387
611 3 17.5383 8.28047 3.7352
1634 2 15.1643 7.98172 2.06084
1442 2 15.864 10.7939 2.63597
1747 3 15.7095 9.30524 2.492
1159 1 14.6626 9.50915 4.48545
929 3 15.5263 6.50131 1.54536
1024 3 23.5846 4.40237 3.09422
239 2 22.5857 6.86414 1.73337
389 3 18.8921 7.2437 1.71933
1675 2 23.4408 8.35281 2.52614
1812 2 18.7384 8.27314 2.69934
852 2 22.4354 10.6122 4.15717
238 1 20.7004 5.02325 4.45941
475 3 20.0845 9.79622 3.34001
1683 2 21.5149 5.45555 1.42042
512 3 22.7952 9.62432 3.06372
1284 1 28.09 8.33131 3.77092
1562 1 24.6181 6.12246 3.5577
1935 2 25.2478 8.55113 1.9322
1808 2 25.4333 7.53682 4.9215
1527 3 25.4793 8.42029 3.64108
88 2 26.4717 7.85851 1.07258
1067 3 26.8749 6.01914 4.47927
1149 3 25.6512 5.76192 0.791562
438 3 27.3876 5.96695 1.28332
1457 2 2.41022 14.5034 3.70432
9 3 2.11627 10.0812 2.05561
1881 1 4.50341 10.79 1.71737
234 2 2.94575 12.8741 3.19913
1810 1 2.77079 10.9317 3.94178
1382 1 2.36174 11.6661 0.586212
1399 3 2.50106 9.61434 0.869524
646 3 3.78606 12.8153 1.78283
1022 2 5.24307 11.6797 3.90216
1925 1 0.118401 14.2604 1.73838
294 3 8.42701 11.1036 2.20679
557 1 9.68025 9.89966 0.926288
1671 2 5.61444 12.8427 1.99184
252 3 4.81313 10.1435 3.58748
220 1 8.17488 12.825 3.11465
2023 2 6.45574 10.1633 2.77483
1665 3 6.43831 14.0943 2.22786
946 2 7.06078 11.3412 1.80698
1046 2 6.76353 9.65842 0.928357
752 2 11.4303 9.43494 2.23473
293 3 14.2444 13.5272 3.91023
588 3 11.3101 11.0824 1.89699
1408 1 13.3876 10.8615 1.80816
606 2 9.84418 11.0718 2.85482
1204 3 9.329 11.1809 4.3016
1845 2 14.6029 11.742 3.74565
472 2 11.9108 12.5155 1.99162
94 3 24.5814 14.2798 2.39343
1214 2 2.53083 -0.0184956 0.439982
1707 3 3.85765 14.6063 8.8565
765 2 22.954 13.527 13.612
1037 2 16.7522 9.73369 3.51239
1132 2 19.2612 11.1995 1.20727
373 2 17.4627 11.7013 3.28
698 3 25.2575 11.8929 10.9056
1525 1 13.6264 14.392 1.19352
1582 2 0.794228 0.932167 4.79052
2010 3 18.8094 12.292 3.02043
804 2 20.0225 13.3456 3.20469
1507 2 19.9658 11.4792 2.48821
492 1 21.1165 9.89733 1.56838
1484 3 27.7489 10.0836 3.22915
1316 2 23.8541 9.7471 1.1889
1814 3 25.1985 11.5672 0.776576
1968 1 24.4272 11.8117 2.77732
188 3 23.9682 6.89918 13.0383
1368 2 27.5269 11.5825 2.7816
861 1 28.9504 9.84544 1.51927
712 3 28.2357 12.0035 1.43481
448 2 26.8494 11.1075 4.19305
240 2 28.7737 12.3507 0.0445016
1103 2 27.9255 14.1039 4.64747
1656 1 20.4366 13.3536 13.9729
1346 3 0.659186 1.47389 6.23971
1351 2 1.64636 2.73764 6.78682
853 1 2.83185 0.95735 7.49479
527 3 2.5315 3.74425 6.13711
1383 3 5.29637 0.324285 7.72999
680 2 0.894658 2.66732 8.25491
437 3 5.83451 3.13986 7.52835
379 3 6.36272 2.76113 6.36796
899 2 9.80083 1.25838 5.52126
748 3 6.28335 4.74455 8.88047
1739 3 8.89818 4.24592 6.88173
369 2 9.59578 2.94038 6.45481
835 2 6.45042 2.33017 4.44293
580 3 7.20645 0.10591 9.43659
1941 3 6.14136 0.482265 8.72916
406 2 6.56381 3.44162 9.10167
1486 3 12.0155 1.19338 5.98281
287 3 22.639 8.83342 13.7876
306 2 10.0858 1.61371 7.65652
44 2 10.2524 4.52968 7.56224
1011 3 13.8938 4.82082 5.44416
1220 2 12.9986 3.63301 9.34606
894 1 12.1997 3.25349 6.70623
1456 2 11.5272 2.22771 8.96247
23 2 13.9944 2.70475 8.20434
395 2 9.70502 3.06962 8.96171
1610 2 11.7239 1.10867 7.66463
471 2 17.5098 4.64049 4.99755
903 3 16.4895 3.96561 5.74633
1924 3 16.219 2.56357 5.65297
45 3 18.8944 3.96449 5.18616
790 1 14.2899 1.02459 6.54214
374 1 17.6157 1.37756 5.02935
42 3 15.1723 2.05811 7.89924
1585 3 17.8253 0.860161 7.38612
186 3 18.6616 0.885297 8.53888
1320 2 16.3981 1.35523 6.89678
1104 2 0.646639 14.0303 11.3421
1672 3 20.2605 3.8183 6.12111
1731 1 20.0203 1.20108 6.57511
227 1 23.3365 1.29857 7.46742
2031 3 22.8099 2.79031 8.75908
297 3 22.6034 4.15785 8.86401
1869 3 19.8805 1.90594 8.29834
229 2 24.6989 1.57249 10.2888
1863 3 23.8484 2.77864 6.17933
1508 3 23.3011 4.41131 4.35329
1913 2 27.7115 1.35153 9.6769
101 1 28.1816 2.81252 5.58752
1548 2 24.8751 1.83458 6.63214
1094 3 27.0246 1.03447 8.49495
1589 3 0.747542 1.61677 9.50905
654 3 26.7257 3.38916 7.74165
434 2 25.9668 1.94604 7.61358
1216 2 25.4958 0.507177 9.06152
1674 1 24.7862 4.20862 8.16308
1460 3 23.5551 4.00083 5.60552
121 2 27.8698 4.30305 7.52791
212 2 2.42039 5.05325 5.41349
731 3 2.40845 6.50028 5.73833
1083 1 4.31165 4.63818 7.26653
1259 2 4.96656 7.43543 8.82512
1878 3 1.52062 7.20126 6.21157
1183 3 4.55765 9.89175 6.93082
409 3 0.512823 8.10294 6.56009
166 3 -0.223323 8.85537 5.5093
1569 2 28.9403 7.80558 7.93419
126 1 1.3589 4.79041 7.78171
53 3 3.4999 4.11528 9.15853
107 3 0.756726 6.84795 8.9219
1542 3 4.56063 8.59337 7.83432
988 2 7.20573 7.33237 5.98361
1378 1 8.53129 5.15344 8.59771
1462 2 5.77722 7.77089 6.91358
1041 2 8.82349 6.7588 6.19434
897 1 7.47198 7.81375 8.64849
1644 3 8.03745 7.24911 11.881
892 3 6.46864 6.03649 8.62173
714 1 14.383 4.90544 8.26115
1997 2 11.1669 5.619 7.07112
796 2 12.8126 5.46009 9.83978
801 2 9.99859 9.1874 6.56139
1829 3 10.3093 6.688 5.55961
679 3 9.94058 7.83171 6.08464
542 3 12.5805 5.41472 7.17519
482 2 13.9234 5.94459 6.43241
1491 1 13.569 7.94388 8.62062
819 3 13.4243 8.50093 6.22519
210 3 14.373 7.45609 6.02487
1411 3 12.4254 9.87995 8.96226
1955 2 17.5215 5.23221 8.44356
634 3 17.4467 6.77569 8.21088
412 3 17.1673 7.98567 8.58027
361 1 16.5363 9.66733 7.44597
498 1 19.5603 8.01393 9.62783
1510 3 22.8675 9.89271 6.19148
1126 1 19.7634 5.51046 7.40304
18 2 19.1689 8.17691 6.3431
1319 2 22.5465 9.7046 7.51446
637 3 21.2355 6.66428 6.26042
1095 3 20.4153 7.72627 6.88502
1902 1 22.6628 6.89621 8.71511
1697 3 23.1084 8.94231 8.84306
763 1 23.0265 8.04513 5.91303
1702 3 27.1839 4.65305 4.2894
172 3 25.3494 9.0778 6.8511
1120 3 25.6176 7.8738 6.4103
1137 1 27.799 7.06619 6.21965
1553 3 28.4652 5.20375 8.41445
443 1 25.2991 7.92985 9.01466
1065 3 27.5085 7.85312 8.54227
1325 2 0.203446 5.49957 9.64402
35 2 3.40506 13.363 4.92528
2019 2 2.55496 11.7638 6.41253
99 3 3.91739 11.2602 6.56316
365 1 0.99542 13.5714 5.75895
1565 3 1.34091 11.1012 5.7293
1475 3 4.80204 12.6437 5.56424
1801 1 5.47695 12.0742 7.7176
1529 2 6.30487 10.0015 7.43463
862 2 8.1216 10.2522 4.63521
1452 3 7.82591 8.54546 5.06342
591 2 6.37265 12.4801 5.18573
828 3 6.32381 10.6472 8.93134
1851 2 7.55967 9.90642 6.2905
986 3 7.41653 12.2775 6.89921
708 3 7.62033 13.3214 5.15204
1933 2 19.2016 6.59721 0.316936
927 2 8.40965 11.2278 6.59012
1561 1 8.91931 12.6156 8.76938
652 1 12.3766 10.1385 5.65963
873 1 9.48646 12.6522 5.60657
1849 3 9.19547 10.2443 7.65773
370 2 14.8683 11.0936 5.76451
1229 3 12.3237 9.85526 7.66218
1141 2 10.7362 10.3816 7.81414
1075 3 14.0938 12.1669 6.35579
280 2 12.7282 12.7799 5.89456
506 3 11.2781 13.4787 6.26969
904 2 29.0197 11.4433 11.6071
1749 3 17.342 10.8725 4.55008
353 3 17.0894 10.711 8.7376
916 3 17.8647 11.2258 5.87028
1730 1 16.5484 12.5221 6.61046
661 2 17.326 12.4258 9.4297
695 3 17.2389 13.4059 8.48731
1729 3 21.0564 10.2585 4.32321
1499 3 22.8652 13.3504 4.58986
1862 2 24.4953 13.0794 5.24153
1311 2 21.1106 10.0078 5.9762
1117 1 19.0963 11.4241 7.3598
548 1 23.4202 10.689 10.0086
232 2 20.0663 10.2719 8.97603
451 2 20.9852 10.4797 7.58219
327 3 21.7831 12.4146 8.98595
1836 3 20.7338 11.6362 8.60335
125 2 26.2526 13.2823 8.88936
879 1 24.7964 10.0699 5.07407
1340 2 0.816823 9.74593 4.66427
737 3 28.2653 12.6777 8.33384
310 2 27.0029 11.2029 6.35496
739 3 26.025 10.2887 7.13177
1448 2 27.6081 12.9736 5.93921
672 2 25.5671 12.0883 4.87731
1330 3 28.026 12.1787 7.21647
1655 3 16.433 14.2992 14.395
500 2 1.91338 0.295446 13.7409
1501 2 0.225496 0.705159 11.4698
445 2 0.882118 3.18023 10.1628
733 1 2.33197 2.79135 12.9092
522 3 0.929901 4.53154 11.3655
344 2 1.60897 1.52298 11.0172
377 2 2.28899 4.39793 10.6019
1187 2 3.32682 1.26556 11.3295
392 3 1.07497 0.726864 12.5272
37 2 2.20982 14.3244 11.3608
1440 2 9.91154 -0.16817 10.9694
1295 1 6.70917 0.493532 13.1667
678 3 4.45117 0.332503 11.3699
122 1 5.84478 1.46514 10.8892
1699 3 9.15593 3.82506 13.8691
1545 2 9.46338 1.96772 11.9093
1663 2 8.96566 0.523188 12.2233
1352 2 7.64486 2.83248 13.6924
345 2 6.87237 4.14871 12.0938
1477 3 6.13275 3.6252 11.0272
1323 3 12.5524 1.64461 9.96324
1922 3 11.1192 3.48298 11.8026
1954 3 13.2419 2.25379 12.6212
296 2 10.0845 1.94652 14.3806
2032 1 12.7941 0.0569696 11.5109
1081 3 11.4297 4.82129 12.3168
2018 2 10.1522 2.96397 10.6485
34 3 9.1653 1.56601 13.2529
1208 3 12.342 2.2941 13.493
84 2 12.1979 2.2015 11.6229
1800 3 17.0218 0.670401 1.46125
1630 2 17.0691 0.0534113 10.8015
144 3 16.1993 1.79959 13.581
1345 3 17.7027 0.805044 9.57588
2017 3 16.6252 4.37589 9.54506
1744 3 6.2075 0.149762 2.59372
1125 2 15.0366 2.01184 12.463
1322 2 17.9972 0.345256 12.1442
385 3 15.4875 2.09138 11.1476
1333 1 14.6424 1.04207 9.87188
1604 2 16.6244 0.323986 13.4868
850 2 16.5501 2.9614 10.3571
387 3 18.1849 3.64449 10.7546
675 1 16.0241 4.22681 12.8732
1236 1 18.662 4.38915 12.6901
564 2 19.0924 1.55423 10.0226
1244 3 19.1703 4.62239 10.5285
521 3 27.7628 6.21233 13.4649
596 2 21.4899 3.9178 13.4919
1234 3 24.0495 0.312718 9.47187
1321 2 22.29 1.14048 12.9184
786 3 19.5071 0.662728 11.0359
131 1 21.494 1.26336 10.8999
1653 1 20.5793 3.81514 9.19174
62 3 17.7019 13.707 -0.0614549
108 2 24.3703 3.13129 11.4598
139 3 23.5877 0.590861 12.3403
1298 3 24.9861 3.26218 10.0999
1190 1 26.6745 2.03769 11.3556
1281 2 25.9966 1.33475 13.3695
120 2 22.9489 3.78071 12.5945
1134 3 25.493 3.99015 13.5416
1910 3 24.2865 3.97452 12.7949
1599 1 25.2204 5.46641 11.128
1356 2 4.40833 7.26415 10.7932
1960 3 1.34053 8.14201 9.19473
778 3 3.75368 8.11144 12.2592
316 3 27.031 10.2549 0.287386
12 1 1.90855 6.60287 10.9119
311 2 3.31661 4.45541 11.8842
268 3 4.36333 4.80057 13.0455
1687 2 3.72837 6.60759 12.4135
1820 3 0.823513 8.15921 12.7728
1911 3 8.32309 7.25882 10.566
1840 2 5.79159 5.37749 13.5362
1232 1 4.97151 5.46977 10.1962
1690 1 5.68109 7.676 13.4904
603 1 7.75674 5.67204 13.4952
1602 2 7.64557 8.86872 11.1598
207 2 9.45327 7.232 12.2355
1986 3 13.0061 7.17439 11.5677
33 3 13.921 7.05897 10.4919
993 3 10.0687 5.77967 12.6898
151 2 11.6283 5.98835 11.3954
1391 3 10.2017 8.43937 12.6193
1515 1 13.4316 5.01727 11.6428
135 3 10.8121 9.65113 12.6819
802 1 11.8542 7.02205 13.5511
72 2 19.7757 2.2445 14.0002
1451 2 13.6343 5.9624 14.0758
1668 1 13.425 9.3562 11.5342
2025 3 15.5413 4.79654 10.6828
1151 3 14.6392 8.63472 9.95742
932 2 24.2897 0.0382948 11.1696
358 2 19.3797 6.05838 11.1394
1219 2 14.3584 8.89564 13.9882
1691 1 16.0994 6.88979 10.2701
822 2 15.2647 6.14903 14.128
2039 3 17.8065 8.4061 11.2588
1479 2 18.0331 7.60007 12.402
1372 1 19.4264 8.94534 13.0835
657 3 15.7792 9.22488 13.9986
1823 3 23.1958 7.23659 14.0182
581 3 20.8031 6.26077 9.10353
1459 3 19.2385 6.77714 12.4564
1412 3 20.8693 6.43599 10.4639
810 2 21.5365 7.4802 14.3717
935 2 21.834 7.61097 10.5078
981 2 20.723 9.02376 11.2023
1706 2 20.1632 6.48279 13.6953
875 3 26.6539 6.20363 12.5926
711 3 23.9907 5.82135 9.57221
194 2 23.4615 6.53684 10.8608
1370 2 25.2695 9.27622 13.6791
1915 2 28.0584 8.15325 12.4424
833 2 25.6772 7.35021 13.0139
272 2 28.4577 7.67074 9.92691
2036 3 28.1032 8.64153 11.0241
1797 2 23.7352 8.65285 10.5712
1991 3 24.3515 7.41452 11.7112
1273 3 26.7722 8.55699 13.6015
1534 3 1.37102 11.3025 12.4102
888 3 2.38391 12.0355 11.2253
1715 3 3.47936 11.179 10.7069
1969 2 1.7019 9.73881 13.3606
1721 1 1.49672 9.56575 10.6043
538 2 3.76995 12.4059 11.6195
1666 1 6.03645 10.8373 13.4355
781 2 21.806 12.65 3.78666
539 1 9.03832 10.4209 12.2249
1614 2 7.01615 11.7583 9.68901
860 3 6.53957 9.41059 11.9973
1012 1 5.11132 9.56692 10.7139
2006 3 4.75616 12.8777 12.7492
1124 3 8.96168 12.9641 10.6052
1502 2 7.21725 11.8641 11.5449
1110 3 6.18609 12.7449 12.4091
356 1 7.24616 13.886 10.8787
933 3 4.33509 14.5687 7.60009
511 3 2.17108 -0.0708132 4.26139
891 3 9.72452 12.955 13.1934
840 2 11.3215 11.0432 12.2901
1207 3 9.77331 11.6303 13.5859
1601 2 9.86242 13.5929 11.6778
1274 3 11.8879 11.3862 11.0952
1953 3 12.0777 10.4031 10.2507
270 1 12.6271 12.778 13.0328
1509 2 18.4821 10.4642 9.70057
638 2 16.6851 9.68938 12.9024
1400 3 21.1348 5.30492 14.0004
1047 3 28.4344 12.965 11.2998
359 2 18.0112 9.93911 11.7839
651 1 17.806 12.0913 12.7987
7 1 16.3577 9.66599 10.5244
685 3 14.717 12.1354 12.2151
961 3 15.6285 11.3258 11.8225
470 2 25.2096 0.425616 12.486
551 3 20.8786 1.54014 13.2871
610 3 20.72 10.4776 12.1394
592 1 22.4667 11.2935 13.5427
909 3 22.125 13.3077 12.5766
1294 3 22.026 10.5295 11.4545
416 2 19.613 10.4437 11.0673
906 2 19.5807 12.7771 12.0773
1822 3 22.4063 13.1127 9.88689
1314 2 20.958 12.0768 11.9845
941 2 27.8962 13.1467 9.51967
1250 1 28.0847 12.9165 13.7042
224 2 12.9672 12.8009 3.55205
1150 3 25.8297 13.0171 10.2765
90 3 25.1076 10.6868 13.4778
1725 1 27.1028 9.94381 9.17639
485 2 25.0677 10.5422 11.8255
684 3 25.1027 9.65951 10.4242
1718 2 4.0159 12.5995 14.1235
225 3 21.7099 6.93085 0.144256
66 3 22.6016 9.68039 0.277815
1943 2 23.7053 11.9909 0.0463353
1073 3 3.22241 0.364181 18.5853
940 2 2.23022 3.47447 17.9226
1837 2 5.45026 2.44069 17.397
583 1 4.16138 0.592579 16.9174
1995 3 28.655 1.72523 16.4574
1949 2 0.767394 2.16344 15.5943
1860 3 0.76564 3.27152 14.2958
47 3 1.68658 3.01689 19.2542
1087 2 1.85512 1.3475 18.8755
342 2 2.18665 4.13307 14.882
261 2 0.823723 0.41193 16.154
856 2 7.56587 1.18492 15.6671
203 3 8.11288 1.68353 18.4075
251 3 8.58106 2.71021 19.285
1003 2 6.77494 1.01414 17.8358
1279 3 7.01403 1.9787 14.6332
444 2 9.25836 4.87934 15.2562
286 3 9.33937 3.76713 18.7698
1152 2 9.52447 4.48726 17.3986
488 2 5.72874 1.86352 19.0868
686 3 9.17352 1.24043 15.7281
729 1 6.50969 4.07693 15.6372
71 2 3.43731 8.95798 15.3373
83 2 10.5916 1.30287 15.8687
440 1 12.6714 2.58918 17.0964
829 3 12.8428 2.02899 19.2215
1147 3 12.8303 3.5866 19.051
1245 2 27.1576 -9.88805e-05 20.2933
106 1 14.7722 3.10109 19.4746
1856 2 24.0574 13.9336 22.4923
1243 2 10.6668 5.22258 16.1614
994 3 11.4161 3.84368 15.6683
1571 2 16.3138 2.11923 17.2234
196 2 15.9252 0.921276 16.1155
253 3 14.7609 1.63241 17.3716
1283 3 16.5694 3.65461 15.1944
1753 1 24.8673 12.6634 14.336
366 1 18.7044 2.25094 18.6285
19 3 15.9438 -0.0627781 14.9187
1793 3 19.172 4.32093 16.8146
1397 2 16.6622 4.00783 17.5871
2029 3 21.8668 3.78396 18.9458
429 1 23.3329 1.99196 19.3934
118 1 7.38763 13.1975 14.5515
1578 3 19.2361 11.19 28.4676
602 2 21.2749 1.99517 17.6479
784 2 19.3465 3.44478 15.5292
931 3 20.2963 4.09947 14.4329
1757 1 23.2873 2.35346 14.7341
1249 3 22.858 2.83688 17.14
1123 3 22.2022 1.85255 16.5574
417 3 20.5473 2.87259 18.9093
241 2 27.4149 2.32522 17.14
1458 3 26.1335 2.40857 18.0769
756 2 26.1813 3.74893 17.8759
1764 1 26.5032 0.429909 17.9887
869 3 25.4362 0.997129 16.0967
8 3 2.61737 10.2443 14.9655
1226 3 25.5256 1.12609 14.5755
997 1 27.4143 2.60869 14.7193
1401 3 3.40121 4.34323 17.6711
1409 2 2.85451 4.4692 16.2165
26 2 0.0423654 7.51111 17.124
1708 3 3.17956 5.71795 18.5152
1441 1 1.28577 7.73677 14.8808
579 3 2.79231 6.91269 17.6311
1660 3 1.60135 7.78229 17.1435
738 3 3.78227 8.15998 17.9096
1237 1 18.5416 13.6154 21.4802
1255 2 28.4007 8.54587 15.8103
1031 3 3.45645 9.45056 17.9388
214 3 1.56922 5.23606 15.7549
449 2 4.10841 4.52883 19.1467
770 3 6.46363 5.73402 17.7727
1903 1 5.32827 7.05948 19.229
1166 3 8.2008 10.095 18.0407
1514 3 7.00364 9.02982 14.5513
1843 2 6.0202 8.35442 15.6684
1751 3 9.22762 10.9848 17.667
143 3 6.35225 6.12042 14.9071
1517 2 6.37103 6.23213 16.3868
1013 3 4.75314 8.40655 15.1241
1297 1 13.3131 5.55503 18.1438
13 3 11.371 6.21418 17.1301
15 2 11.1519 9.10613 17.1596
1624 2 10.9552 7.82316 17.8991
1712 1 14.0424 6.98571 16.1005
1650 2 13.8767 8.91042 18.4332
567 2 12.5436 9.45925 16.0367
1106 2 10.095 8.06876 18.9963
300 1 10.7162 5.58697 18.8766
960 1 17.6183 6.85946 17.4371
1735 3 14.631 7.33571 18.1204
633 3 17.3978 7.61811 14.9998
1494 3 18.1624 4.10344 17.6155
545 3 15.9551 6.74333 18.5719
601 3 15.2852 4.52564 18.1747
1799 3 18.0374 6.5055 15.2871
1463 3 14.6054 4.93968 16.867
1007 1 19.3439 4.97138 19.6766
1148 3 4.33443 13.4145 22.0785
848 2 18.7675 7.99943 15.4178
464 1 20.1264 5.83151 15.8321
912 3 21.0208 7.52865 16.885
376 3 8.87401 13.672 22.2759
1111 3 20.1265 7.08117 17.8005
357 1 22.9556 7.4612 16.1088
1001 1 16.2619 0.0951303 18.2875
921 3 23.092 6.88954 18.0975
1018 1 23.613 4.69492 18.183
1759 3 19.2061 7.09333 18.9233
1426 1 22.6087 9.26554 18.199
419 1 25.4722 5.16049 14.81
942 3 27.7201 6.7216 16.8702
103 3 26.9854 5.72274 16.6898
1919 2 26.5333 0.507296 26.366
510 3 25.9752 4.8462 16.7713
577 3 10.935 13.7621 27.8723
208 2 23.5741 9.2919 14.9416
2030 2 1.84249 11.4855 15.3122
1424 3 7.72396 0.0254871 23.2002
1643 3 2.63496 12.6868 14.7688
5 1 1.18808 9.69751 16.7908
1210 1 1.23065 13.0521 16.4892
1162 3 4.13542 12.1125 19.1212
625 2 2.87405 11.4372 18.4283
599 3 3.05166 13.328 18.6936
609 3 28.6814 10.6073 18.9043
2037 3 2.87752 14.2026 17.7007
1248 1 22.3963 10.1963 25.5599
1019 3 7.91092 10.0362 14.6396
1654 1 5.65773 9.68137 18.156
1734 3 5.29536 12.1184 14.9708
285 2 8.67133 11.3057 14.8456
701 2 6.29328 11.7743 15.7849
354 3 7.91257 11.9846 16.1682
1421 1 7.36981 12.3713 18.0487
1205 2 5.58371 11.6951 19.6594
1361 2 10.7866 10.7872 17.8109
1060 3 13.4599 9.56545 17.1657
751 3 11.6571 11.5746 19.1338
4 1 13.7281 11.5569 18.4618
473 3 13.4535 13.3064 17.0115
999 3 12.0737 13.4278 16.5368
55 1 10.1064 12.7918 16.3207
1760 3 9.07187 13.7967 18.9968
1608 3 12.247 0.92804 15.7314
691 3 14.4405 9.60271 19.8125
51 1 15.5994 13.8832 18.8845
1239 1 14.7992 10.0777 15.9324
1805 3 15.8786 11.8702 18.6686
919 3 17.2579 10.0979 16.6643
582 2 19.267 10.5438 17.6757
1472 3 18.5856 11.0395 16.4951
841 2 16.1056 10.8192 17.8556
179 3 18.9931 12.7362 14.7197
1631 2 26.3336 10.3819 26.3372
1576 3 19.8644 13.5549 18.5455
112 2 18.2439 13.7809 14.187
1300 1 20.7962 12.5224 16.9377
1880 3 20.1188 9.87894 18.5249
882 3 21.844 11.5191 15.4533
1956 1 20.854 9.7229 15.8641
1771 3 22.1452 11.027 16.7821
263 2 23.4978 9.92067 16.3221
1278 2 20.1549 10.381 19.8286
957 3 21.2294 11.6951 26.8259
1158 3 24.438 13.2827 17.1081
1384 3 27.6961 9.71067 16.5234
1500 2 28.5676 11.5905 15.6512
754 3 23.7014 10.6735 17.4132
865 2 24.6381 11.8843 17.3644
676 2 26.2136 11.7017 19.4748
565 3 27.5358 12.3327 18.2781
876 3 27.9484 13.908 18.2599
1832 1 26.9435 10.3281 14.7216
301 2 28.14 10.6968 17.5541
364 3 27.2583 12.1886 15.2191
49 2 27.9152 13.3845 15.8441
1410 3 4.26742 2.98778 21.0134
190 3 -0.154451 3.3073 22.3413
1105 2 4.10823 2.29617 22.7922
826 2 4.26481 0.715849 19.5154
1005 2 5.28711 3.84413 20.3249
319 2 1.30797 6.1769 21.7458
1819 2 3.38076 3.53398 22.1878
1406 3 0.679998 4.20793 21.8517
1354 2 3.39147 0.383407 22.2455
246 2 6.23404 5.25666 21.0516
978 3 5.17561 0.552517 21.5428
658 2 5.02889 1.70281 20.4491
779 1 6.18797 2.15239 23.1811
723 1 8.54819 1.08947 20.7758
1546 3 6.65575 4.02164 21.8283
1906 3 8.17844 3.76913 22.3456
1872 3 9.02939 4.53525 22.8787
163 1 24.6965 11.7296 25.1343
703 3 6.73157 3.85949 24.4444
1136 2 10.5495 0.124172 21.8446
1642 3 11.8855 1.40428 19.8814
1447 1 13.3816 0.499415 21.1891
617 1 10.669 2.81361 22.3359
334 3 13.507 1.83815 23.2112
1161 3 14.2366 2.70865 22.6118
1737 3 10.7861 1.20513 20.7449
54 2 13.7504 3.75342 21.6588
2015 3 12.4442 4.58751 21.5801
1085 3 10.9908 4.44796 21.1517
1877 2 12.2182 1.2125 23.4734
331 3 16.8336 4.32954 20.4617
1628 3 16.7134 1.43165 22.3413
1392 3 17.7942 3.32688 20.6527
1726 1 15.9036 3.61849 22.1318
31 2 16.9604 2.33476 23.7438
317 1 19.0067 1.34765 21.5385
917 3 18.3033 4.59885 22.8849
900 2 15.6779 1.20882 21.1466
859 3 17.9432 0.468871 19.9131
1466 2 18.816 3.71844 21.6965
1544 3 14.5709 5.03708 22.9656
1407 2 20.7764 0.793238 18.6026
1268 3 11.6051 2.86686 14.7092
1164 2 2.38581 14.4149 14.9308
656 1 24.0266 2.28609 23.1911
1267 3 20.9224 1.30381 21.9421
1016 2 20.7181 0.278547 20.2228
439 3 25.1125 4.82107 21.5478
450 2 20.7912 2.56689 22.7697
1355 3 23.8489 3.0637 21.2364
797 1 21.1674 3.55262 21.0139
170 3 23.5909 -0.185812 20.0495
1827 2 0.359367 3.78131 19.5262
1335 1 27.0626 0.388346 23.8379
854 3 16.4571 14.2548 26.1516
2033 3 23.4829 4.0875 20.134
673 2 26.3948 12.5677 27.3945
182 2 27.8645 2.17208 22.6328
663 3 25.3205 2.92435 22.1237
537 3 26.2811 2.09642 22.7988
1056 3 28.051 4.45965 19.1415
910 3 0.0346946 0.590987 23.0455
1695 3 17.1031 2.71682 14.3982
21 1 2.11245 4.95165 20.3736
281 2 3.96313 4.79624 23.4838
1034 2 2.7123 5.15102 22.3434
1422 3 3.67197 6.30014 20.9376
337 2 4.3907 8.51442 23.9022
1017 2 5.16017 7.45741 22.8183
59 1 3.10263 8.66 20.3775
1993 3 4.73002 7.168 21.365
1612 2 1.19837 9.15833 21.5653
513 3 2.33887 9.62599 22.1097
399 3 0.617561 7.63926 21.7228
503 1 0.251831 9.00088 23.8289
1598 1 6.79588 3.90402 18.5967
1980 2 5.67565 4.33953 22.8667
1547 2 8.50567 7.14061 19.5165
1752 2 8.78068 8.56962 18.2347
666 2 6.99445 5.9328 19.7473
1774 3 8.65441 5.83898 20.4655
1327 2 8.09636 7.264 23.4349
643 3 8.29258 7.91666 22.1445
383 1 6.75441 8.49571 21.0662
696 3 5.18041 5.94932 23.9889
40 2 9.67258 5.05799 21.3369
827 2 9.16764 8.70408 21.0078
1967 3 10.5481 9.55927 21.1809
1765 1 10.5417 8.3129 22.5813
289 3 12.6975 6.90423 22.3388
346 2 13.3748 7.52936 23.8685
248 1 11.2987 5.44258 23.2294
886 2 13.3933 5.71123 22.2133
570 2 16.4421 7.56643 19.8059
727 3 15.4672 8.75936 20.0281
726 2 18.0758 7.44874 19.9173
180 2 15.8702 5.26098 19.266
556 3 15.8487 8.76152 23.0825
1988 2 17.3529 8.95604 22.624
742 3 14.6801 8.82757 23.0116
1337 2 18.6006 8.04439 23.1873
1394 2 18.1269 6.98944 24.1339
110 2 19.7208 5.55365 22.8567
1756 2 22.5901 7.15286 19.4524
1482 1 22.9912 5.92807 23.3445
820 3 20.0932 5.4941 21.3319
116 3 23.1035 8.09363 20.8157
1866 1 20.6211 7.55876 20.6106
560 2 22.2139 9.18482 21.3704
642 3 24.3804 7.52852 21.1496
1438 3 21.3093 8.80083 22.8035
204 3 21.6933 9.89864 23.7323
277 2 25.6965 5.73073 20.374
753 3 26.9776 4.9713 19.5931
1813 3 25.4379 6.96207 20.9372
1240 1 27.9982 6.16144 23.5285
1600 2 28.1725 7.75023 21.4925
1122 3 27.1628 8.79873 21.6258
2003 3 27.5643 7.98251 24.79
1301 3 3.45428 10.3132 22.1585
1987 3 4.91248 9.89033 21.0975
1497 3 4.43697 10.1098 23.2184
245 2 0.429828 9.93812 20.0259
1897 3 5.58492 13.1297 18.8356
1431 2 2.78848 13.0851 24.2494
447 2 2.1727 11.6956 24.7331
747 1 5.23664 11.523 22.3078
1714 3 6.0846 10.5289 20.3875
202 2 8.80478 9.56943 22.4375
1815 3 8.96719 12.9912 19.9439
707 3 7.03856 11.2076 22.9322
1010 3 9.56266 12.9735 21.2707
176 2 5.88873 12.3957 24.6936
271 3 8.15204 11.0838 22.267
1975 2 4.64588 13.2681 23.6711
628 2 15.9839 8.07359 15.0175
1054 2 14.6811 13.5967 21.6686
1741 1 9.31534 10.7858 20.1177
724 2 11.7906 10.277 21.9564
874 2 12.2289 11.0672 20.5148
424 3 14.232 12.1955 22.0165
69 2 13.3888 11.005 22.4592
950 1 11.4009 13.4511 19.2612
1835 1 11.7272 14.1547 22.4938
314 1 12.8116 9.57162 24.254
736 3 8.04233 -0.128843 18.4698
925 3 24.7759 -0.0245976 16.7158
674 3 16.4863 11.463 22.2645
478 3 17.2934 10.3032 21.8277
558 3 20.0025 12.8359 19.8161
883 2 20.1177 11.6536 20.9541
1905 1 15.559 11.2469 20.6286
2021 3 27.6479 12.482 27.9018
1167 2 15.5696 11.2999 23.4256
1977 3 13.1312 9.19584 14.6916
1639 2 23.8089 14.1337 18.1551
2038 3 20.3986 12.2807 22.1222
1373 3 22.0978 10.3314 20.5562
1369 1 19.332 10.2008 22.4785
266 3 23.0319 11.4398 20.3447
630 3 19.5877 11.754 24.5031
1807 1 20.835 13.539 23.9601
1888 2 26.7293 13.496 19.3427
968 1 24.4918 12.8825 20.4054
25 3 26.5112 9.84243 22.165
715 3 2.05313 7.25265 28.6649
1256 3 27.7669 13.4975 22.4315
1209 1 27.1672 10.1312 23.8852
436 1 27.5334 11.1322 20.8977
490 3 27.3346 12.214 22.6887
1377 2 25.043 11.1444 20.9398
2008 3 26.6989 14.6267 23.6092
975 2 25.8378 12.9522 22.8478
913 3 4.12383 1.01859 23.5641
744 1 1.71682 2.81928 24.3677
397 2 0.103611 0.0298856 24.5683
403 2 4.70705 0.619645 24.8129
2012 3 0.755706 2.7852 26.1466
1940 3 4.56647 0.889632 26.1945
670 3 4.97518 2.49852 28.6549
1231 2 5.13281 1.28342 27.6652
187 3 5.2605 3.56102 25.9321
1595 1 8.66353 4.25527 24.8739
1828 2 6.37106 2.62469 25.4258
710 1 6.80903 0.541204 26.3327
211 3 27.9983 9.7014 26.9657
1299 3 7.3099 1.68469 27.85
608 2 7.9429 2.37057 25.8566
181 3 8.32506 1.82689 28.7658
623 3 7.84005 0.0879936 24.5662
140 1 9.73746 0.723308 24.8564
162 1 13.4379 0.193388 25.3206
687 3 10.8778 3.77474 24.2837
1493 3 10.7621 3.20838 25.4551
1816 3 11.1162 2.40059 26.3695
717 3 11.1265 0.999778 28.865
1389 2 11.7516 1.68454 27.5208
193 3 13.0795 2.6615 27.2706
142 2 14.4808 4.57751 26.5581
626 2 16.3159 1.22778 25.8101
1464 2 17.8486 1.86127 25.3944
462 2 17.3037 2.12862 27.2682
1577 3 14.4209 3.01523 26.8005
930 3 15.704 2.09667 27.0627
561 2 16.6598 3.64265 27.1112
1524 1 18.3981 3.99791 25.2332
89 1 19.0519 0.73115 27.2329
1059 1 19.8609 0.593632 24.3299
93 3 21.0888 2.11996 25.6507
750 3 21.2267 2.83017 24.4112
1625 2 21.5576 0.833646 26.2551
134 3 22.7703 0.901932 27.5322
1371 2 20.0787 3.16952 26.4339
326 3 23.5334 3.67237 24.8456
1430 2 22.5446 5.14325 25.7669
341 3 19.7898 4.38035 27.4413
1560 3 21.3649 1.16718 28.1521
1606 2 17.0079 2.94906 28.6618
937 1 25.8557 1.08779 28.5432
1570 2 24.1006 2.41752 25.4116
1471 2 23.8877 4.19017 26.2589
713 2 25.6576 14.1638 26.4729
943 2 26.7612 3.75913 27.1382
619 3 23.7808 1.44518 26.5157
17 2 25.6243 2.2632 26.619
1619 1 28.176 1.69156 26.9529
1468 2 25.2326 4.53613 27.0308
1698 1 2.20675 6.29461 24.738
1705 2 3.94757 3.93403 25.058
1830 3 1.16623 4.14518 26.8945
952 2 2.35541 4.55284 25.9151
1478 1 1.02142 6.11533 27.2342
1061 3 3.33933 8.31769 24.8588
777 3 2.02488 8.50242 24.8321
664 3 22.6858 12.0185 24.7545
32 3 6.9966 7.73306 24.9772
378 2 6.29159 5.34874 24.8721
223 2 7.18575 9.10776 25.3806
1964 2 4.85002 6.83154 25.6719
1133 2 7.58804 6.40544 24.5832
209 1 7.97248 6.97045 26.5661
1710 3 6.12682 7.8558 27.5181
350 2 8.00906 9.26492 27.46
1246 3 5.00258 7.00853 27.1029
95 3 7.63678 10.28 26.27
1329 2 9.73287 8.8504 27.4795
1794 2 7.27271 8.17774 28.4425
138 3 10.2166 8.20946 25.5461
697 3 10.4844 7.66381 28.1668
1439 1 12.0622 4.62505 26.7456
1809 2 11.622 7.96144 27.1805
1662 2 12.4525 9.43472 26.2906
569 2 9.90542 6.72475 25.6308
803 3 14.3011 6.05258 24.2891
1661 1 13.4552 7.66155 26.1996