# LAMMPS data file written by OVITO Basic 3.7.11
2000 atoms
3 atom types
3.20287948 31.863008861 xlo xhi
3.20287948 31.863008861 ylo yhi
3.20287948 31.863008861 zlo zhi

Masses
 
            1   10.81000000             # B
            2   47.86700000             # Ti
            3   12.01100000             # C

Atoms  # atomic

655 2 5.63653 5.24141 5.3372
1357 2 4.11158 6.11486 4.44072
1257 1 5.61766 7.02929 6.02915
275 1 6.47903 4.32514 7.19966
1884 3 7.113 5.99683 6.84136
1073 1 3.74232 4.10037 4.01142
899 1 3.24089 5.08752 6.25249
1019 2 4.10122 8.41137 4.07202
687 2 3.75496 6.69749 7.78439
1924 1 6.66337 6.8676 3.33437
787 2 6.39746 4.43408 3.3398
1863 1 8.22735 4.8603 4.87965
345 1 11.8802 6.31136 6.11924
878 3 10.0559 5.4063 4.78664
131 1 19.1304 3.30614 12.1398
325 2 11.0647 4.35142 7.0508
1520 1 9.20459 5.72186 7.38338
244 1 9.13971 7.94648 4.34547
1585 1 11.4652 3.57027 4.74763
967 3 12.7459 3.32868 8.16792
439 3 9.85444 3.64611 7.67885
1923 1 11.8084 5.94953 3.2586
1390 1 14.0401 4.67183 6.73727
1170 3 14.0036 6.86077 6.36945
1840 2 13.3537 4.51554 4.43867
554 1 15.2313 5.53429 4.51513
529 1 16.7776 5.56186 6.98937
902 2 17.1635 5.02227 3.4399
703 1 19.2753 3.59061 4.74576
1608 2 17.8228 5.72212 4.57909
836 2 18.359 6.76539 8.06373
467 1 20.3537 6.38709 6.45383
1780 2 20.0329 4.29815 6.5471
730 2 18.4798 7.31687 4.99781
87 3 22.9417 5.38394 6.18076
1852 3 22.783 6.69158 5.77016
158 2 19.9899 8.09481 8.11843
1843 3 28.3303 12.8527 16.1072
1849 2 22.841 4.06314 6.98256
1595 3 24.4543 4.65277 3.39349
177 2 24.6144 7.27149 5.51563
1319 2 26.0979 6.28359 6.23973
222 1 24.867 4.665 5.5135
1115 2 26.3631 5.86777 7.75504
1879 1 24.087 17.5191 11.6572
1094 1 24.8387 6.77987 3.40139
987 1 24.4441 6.77395 8.11416
176 1 22.3528 4.80595 3.83932
1921 1 27.9229 3.71712 7.91712
1892 2 26.9719 5.08916 5.46163
502 1 28.5882 6.549 7.15791
472 2 30.6141 7.29217 6.928
1241 2 28.4267 6.09828 4.73359
1854 3 30.2055 6.16218 5.96693
909 2 30.4243 7.28179 4.84808
831 1 29.1633 3.95188 5.37465
1916 2 5.90936 8.72486 4.55732
71 1 5.03248 9.94244 6.47759
938 3 7.39845 8.25167 4.995
1985 3 5.93222 11.8239 5.60625
28 1 7.49169 8.91985 7.3966
1517 3 6.99664 10.6767 6.41494
1445 1 4.74006 10.7945 3.75612
308 2 7.62727 9.98047 4.66825
1633 1 7.01105 11.5939 8.37202
756 3 3.84665 8.09904 8.30223
1625 2 10.6243 7.82511 7.36054
225 2 8.2684 11.3375 5.92221
1750 1 9.72154 9.99112 7.6035
1487 1 11.6876 9.71678 4.75551
266 3 11.986 8.4853 6.93776
10 3 11.7527 7.77493 4.11809
1857 2 9.93816 11.4853 5.61192
1383 2 11.5471 11.4715 5.95613
1050 2 10.6053 11.5759 3.93684
1237 1 11.3434 12.2623 7.68441
289 1 23.9241 3.74109 17.2848
1908 2 21.3671 12.9837 3.83479
653 2 13.334 8.47154 3.94817
1659 2 13.0383 8.15228 5.61598
1060 2 13.1235 11.6304 5.16321
1874 1 13.858 10.9693 8.21942
1029 2 14.6311 11.2763 5.13034
571 2 15.7794 11.7282 6.26965
950 1 15.1699 8.29562 5.31287
466 1 16.5955 11.5315 4.34111
1527 3 21.9931 17.5307 13.174
877 2 17.2935 11.0482 6.39444
631 2 18.1372 7.69916 6.49805
693 1 18.2658 9.6519 4.87716
1540 3 19.3232 8.30615 3.97429
1320 1 21.997 8.99889 7.55569
477 3 18.9226 11.1328 6.18086
1212 1 20.9242 10.5508 5.51431
1824 3 20.3668 11.9332 3.82216
580 3 22.9708 9.83244 5.85302
1927 1 22.911 8.25411 4.56089
1790 2 22.5693 11.0004 6.78999
791 2 23.8828 11.8639 7.29142
576 3 26.1766 10.1468 5.89332
1726 2 26.4905 10.5593 4.38213
569 1 24.5266 9.51122 7.26399
1858 2 26.3714 11.7564 5.60473
223 1 24.0626 11.5263 5.05848
1946 1 26.2412 8.48213 4.78797
1668 3 22.5646 12.7114 4.33978
969 1 26.1975 11.6428 7.94541
352 2 28.6171 8.15195 5.29287
1893 2 29.4576 8.65625 6.8905
1132 3 3.49172 11.2384 5.37931
84 1 8.12624 17.4651 10.9681
1670 2 31.5846 10.0744 4.74818
249 1 30.9869 11.904 7.0387
1853 1 28.7905 10.1854 5.27459
1047 3 28.7028 11.1299 7.34884
1185 2 27.8561 12.2165 6.18968
739 1 30.6981 12.3171 3.57856
1179 2 30.6052 8.78317 4.06037
891 2 30.0089 9.959 7.648
1777 2 31.4993 9.19683 7.59299
973 3 15.358 3.30524 15.8433
1612 1 3.3947 16.7754 4.48394
505 3 4.55978 16.092 6.41087
1991 1 4.46781 13.0321 5.40171
400 2 6.23813 15.1753 3.71894
95 2 6.79341 13.2046 4.6898
1326 1 6.64974 15.7253 5.99893
1975 2 4.41532 16.8608 7.79754
939 2 6.84453 16.754 4.04101
1501 2 5.86259 14.135 7.16
253 2 5.40315 16.6719 3.4029
884 3 29.053 5.67671 3.57122
1038 1 8.17588 11.8745 3.69342
305 2 8.447 16.3886 6.77049
1553 3 28.0666 17.2843 11.2736
751 2 9.06434 15.5206 5.43817
928 1 10.6675 14.6066 4.67805
974 2 10.8351 14.7382 7.04421
1809 3 11.7596 15.6703 6.16164
1145 1 13.1899 16.0887 4.05699
1941 1 8.95037 13.709 6.71027
1658 2 8.67503 16.5214 4.0096
790 3 13.0007 13.5911 4.98504
1942 3 15.6432 13.2584 3.72721
1022 1 15.992 15.3858 3.19461
534 1 13.3481 14.6287 6.94405
1158 1 16.2129 13.8014 5.82567
1761 3 13.8617 15.9108 8.5331
1878 2 14.4541 13.9653 4.64052
945 3 13.1138 12.896 8.56894
1166 2 15.5365 3.30339 7.91338
111 1 19.4229 13.7125 4.34582
1153 3 17.0806 14.9745 7.69261
856 1 19.3991 12.8987 7.6485
786 3 20.3686 15.0233 7.85566
759 2 14.5417 3.26475 4.85858
268 1 18.3981 16.078 6.18185
141 2 20.5524 16.2251 6.79678
316 1 21.834 13.4916 6.81185
1144 1 21.6469 16.1644 4.92487
736 1 19.1437 17.4652 3.7002
816 3 18.3046 15.0762 3.86618
1340 3 24.5005 16.3573 5.18183
1561 1 26.1014 14.2419 6.91973
912 3 23.2919 16.6206 6.34216
476 2 23.5602 15.0463 7.03035
801 1 23.7199 14.0747 4.88199
1880 1 20.9552 16.8403 11.1023
1160 1 27.1781 12.4822 3.43103
551 2 24.7053 15.6961 7.9579
707 2 28.4024 16.2892 3.72445
1388 1 27.0319 16.8101 7.51536
104 2 27.671 15.9465 5.13112
1137 2 29.4638 12.7794 5.22896
1636 3 30.7784 13.6932 6.23181
1513 3 29.2939 16.2041 6.88526
1012 2 27.9632 13.6934 5.21065
1496 1 31.7132 15.1105 7.72834
962 1 29.9008 14.8845 4.87095
1366 2 30.2938 16.9989 6.09472
519 2 27.6196 17.532 5.14654
998 2 3.77083 5.0456 8.38897
1323 2 4.01876 5.49336 10.1565
1566 1 6.06408 6.41697 9.10768
630 2 5.1969 5.19453 11.1084
424 3 6.72917 4.68 10.2043
1483 1 4.30903 7.52551 11.5102
18 1 3.56005 3.80174 11.6153
1376 1 6.60232 6.65142 11.4911
1708 2 8.08797 7.44771 9.6164
993 1 9.02617 5.01422 10.1177
1006 2 11.6958 4.37048 11.5284
1796 2 10.6432 7.0842 10.4282
1764 3 10.3511 5.33862 11.6634
1993 3 12.0646 7.10119 10.0267
1992 1 16.9896 8.14989 9.00461
422 1 12.2515 5.0433 9.26498
500 3 15.1739 6.50064 9.57821
1871 2 14.7738 4.90833 9.28843
386 2 16.2242 6.2318 10.6213
1298 1 17.2787 4.56206 10.4279
1797 3 14.468 5.71901 13.2857
1959 2 28.1848 14.0084 17.1294
1417 1 14.713 3.7063 11.9453
1116 1 14.1331 7.63419 8.41465
669 2 21.4581 6.94255 8.22517
479 3 17.8615 5.76679 9.17483
905 1 19.9445 6.60623 9.70991
83 1 22.1647 5.07402 8.41447
1317 2 20.7064 5.13429 11.6336
9 1 19.5473 4.15735 9.06206
860 1 19.4946 7.84803 12.4247
959 2 30.2521 17.1746 15.7569
897 3 18.2759 6.28677 11.5699
255 2 21.9274 6.71603 11.0038
1664 3 21.2692 4.06817 12.4629
1424 3 22.4316 7.11616 9.40317
1525 1 22.7185 4.37866 11.0209
1555 1 24.5463 6.62578 10.901
747 2 26.2379 5.32375 12.2849
64 2 24.8354 4.91784 9.46881
1149 3 25.9243 5.94964 8.96303
1180 2 24.4406 5.21349 12.3517
1220 1 27.9128 16.0281 16.7609
1118 2 29.1662 14.3819 12.6106
1155 1 28.38 4.21368 10.444
638 1 30.4438 6.30257 9.45627
625 2 31.598 5.90565 11.3063
1246 2 30.2495 5.49266 11.8084
1338 1 28.0201 7.41849 11.8274
186 3 29.2765 4.4772 12.2299
557 3 29.9725 4.39974 8.93613
1265 2 5.38688 8.39908 8.33282
656 3 5.73259 9.75255 8.51587
869 1 4.23998 12.2116 9.5755
748 1 6.19167 9.42653 10.5355
156 2 6.25319 12.0314 12.4473
733 1 4.17981 10.7856 12.2469
1205 2 6.067 11.7464 10.4375
280 2 9.16543 7.76016 8.36595
45 3 8.66158 8.91883 9.43178
1201 1 9.34886 10.5855 10.8408
1284 1 10.1407 8.47713 12.0433
70 1 11.6603 9.40822 9.47425
41 2 11.1869 11.7079 10.9814
17 2 11.3633 10.5134 12.0351
915 2 8.3122 10.3052 12.5646
1897 2 9.36367 12.077 8.95818
1125 1 16.8609 11.2942 8.77017
128 2 15.0324 9.31097 9.27112
606 1 13.7866 8.00911 11.3821
1478 3 13.6742 9.5682 9.72418
694 1 13.4685 10.7594 11.6863
1806 1 17.2889 9.46592 13.3518
698 2 18.8835 9.95595 7.76791
668 3 19.927 8.88527 9.37514
793 2 17.6092 7.87773 11.5947
1615 1 18.949 10.4741 10.0285
1467 3 20.9991 10.9292 11.1396
1723 2 20.9474 12.5102 11.6427
1202 1 21.5186 9.0563 10.7204
1305 3 18.4151 9.56615 11.8123
1624 1 21.8662 11.4644 8.84586
1310 3 25.9052 8.14316 10.5704
863 2 23.0143 7.81889 12.0593
1698 2 24.2239 11.3447 8.88879
394 1 22.9175 11.0625 12.0006
1672 2 26.4417 8.99092 11.7247
1280 3 23.8926 11.1128 10.3606
930 1 23.8166 9.06475 9.88942
952 1 26.1978 10.7594 10.827
683 2 24.752 12.2382 11.3126
1500 1 27.5375 8.76912 7.92822
354 3 31.4034 9.36467 12.2866
1191 1 31.2503 9.77456 9.64528
484 2 28.7152 9.07387 10.0264
1791 3 27.5463 13.1444 8.82453
734 1 28.8125 11.467 9.12208
750 3 29.5049 10.5022 10.8108
666 2 30.2869 8.3989 12.1007
845 3 5.20327 13.1711 8.14323
875 1 3.25362 16.884 10.3441
1332 3 7.07692 15.7666 10.2377
1934 1 6.10932 14.213 9.74823
1365 2 4.06412 14.5791 11.672
1059 2 6.51898 15.5988 11.7432
435 1 8.31675 13.1293 12.0576
910 1 6.46641 17.2063 8.96473
1844 1 4.73057 16.7211 12.6058
1798 2 8.12967 13.0446 9.53197
437 1 11.4218 16.8707 8.47981
608 1 10.2204 13.8578 10.5912
1949 1 9.07105 15.5154 9.08031
1256 3 11.0892 15.462 10.4965
850 3 9.75288 14.6483 12.3416
1772 3 12.2886 15.3254 11.2221
1762 1 10.6669 15.8614 13.275
1262 2 30.1425 15.6044 16.6509
1482 1 16.1415 16.7941 7.83312
1538 1 15.3816 16.9573 10.9948
1717 1 18.1424 13.1456 11.5415
1579 3 15.531 12.0009 9.74253
1222 2 17.1582 13.4035 7.87631
753 2 15.3553 12.8734 11.469
1505 1 15.0442 14.0027 8.7306
49 2 13.7511 15.7029 10.2425
1404 2 15.5981 14.6076 10.8737
395 1 13.0183 13.2393 10.6664
115 2 16.7748 15.0283 12.278
1001 2 16.526 13.0552 10.1959
574 2 17.9978 13.0521 9.14317
563 3 19.3171 14.0723 9.72116
607 2 19.7811 13.0872 13.198
948 1 17.729 15.2209 10.2811
1551 1 29.0527 14.2968 14.6128
1902 1 19.3211 16.5035 8.6585
586 1 21.3232 14.2076 9.89593
1291 2 21.0551 15.4326 12.8459
1348 2 19.9728 14.07 11.5522
1288 1 22.2076 16.3765 8.30762
1381 2 27.1741 14.8647 9.08989
1356 2 23.1023 15.7578 11.1385
374 2 26.5054 13.8519 10.7437
1441 1 24.0853 13.8073 9.06847
1736 1 26.4281 16.4327 10.6837
1506 1 23.2137 13.9727 12.1064
1007 2 24.1593 16.7401 9.23098
1733 3 26.0164 17.363 12.9185
149 1 29.0945 17.0697 9.38681
46 1 28.7019 14.3041 7.55533
671 1 31.261 13.1854 12.0473
1184 2 30.8085 13.2449 9.30836
579 3 30.824 14.7824 9.66968
1486 1 28.8903 14.815 10.5058
789 2 3.63002 14.4076 10.1157
237 1 30.6643 16.2968 13.0317
769 2 27.7973 15.2353 12.6951
664 3 31.3953 15.0719 17.1513
1327 2 7.25936 5.67969 15.1867
1236 1 6.61611 4.0351 12.4219
1848 3 7.37305 6.048 13.7011
445 3 3.74582 4.54796 13.6552
623 2 3.61962 4.72502 15.2762
1891 2 5.48344 4.73536 15.5224
286 1 5.23003 6.12956 13.4357
1206 1 3.64697 6.66122 16.5434
589 1 9.72401 3.92647 14.5293
1746 3 8.44013 6.44283 13.0194
600 2 9.97451 6.07707 12.9956
1406 1 12.6084 6.07682 12.5913
1660 1 9.11894 6.73891 15.2597
1134 1 11.5269 6.28707 16.089
592 2 11.0933 7.45968 13.9799
995 3 8.66086 5.0776 16.1889
636 3 11.0304 5.99976 14.1624
1695 3 10.9917 3.44281 15.939
783 3 9.28889 6.18192 17.1219
125 1 12.6185 3.57474 16.4995
977 2 16.4239 3.38535 16.7854
1485 3 14.7748 6.78826 14.1195
453 1 16.4502 6.59317 12.804
1696 2 13.6243 7.31889 16.9246
535 1 16.323 7.42493 15.6773
988 1 14.9491 5.36257 15.672
1048 3 17.9971 6.41978 14.5589
555 2 18.0242 4.89216 14.7587
824 1 21.1758 3.95205 16.144
1674 2 18.7618 3.53083 15.1978
857 1 19.981 5.04646 14.0081
1318 1 17.987 5.19478 16.8991
1110 2 20.8836 8.11514 14.1801
678 1 22.5547 5.80436 13.2318
645 2 23.9263 6.7224 14.9156
199 2 25.4702 3.60318 15.0876
1221 1 23.2054 3.38643 13.8272
1036 2 24.3738 5.09415 14.8281
1027 1 25.1389 6.93352 16.7289
344 2 22.8134 5.65143 15.6399
368 1 26.8006 5.87215 14.1255
229 1 30.8301 3.20461 13.6967
925 3 12.3744 17.5007 12.9722
757 2 27.4938 4.50327 12.36
402 1 30.2498 6.16051 17.4879
772 1 31.0115 6.20135 13.5362
1692 3 26.8986 7.06394 16.1777
490 3 30.838 5.82621 15.5179
1231 2 29.7593 4.63025 15.1678
511 1 28.8066 7.20954 15.6706
388 3 30.6307 8.57836 16.4132
1311 3 29.3582 3.78599 16.5362
1990 1 5.88628 9.11807 13.3926
1430 1 7.41186 8.72001 15.5589
444 2 7.15004 11.1044 13.9653
609 2 5.00909 10.0082 15.0817
873 3 5.02931 8.43609 15.6202
665 2 4.14746 11.0896 16.0512
788 2 14.0111 17.3724 8.58779
433 1 6.51048 12.3834 16.4115
279 2 7.55439 13.0158 13.5322
1502 2 3.69446 12.3223 13.6735
1675 2 10.5669 10.6887 17.3341
835 1 10.8642 12.7574 13.1311
1347 2 12.1861 8.18693 16.7081
1541 3 12.2861 9.66935 12.9618
768 3 12.0657 8.29938 13.175
1898 3 8.11375 10.0608 14.0532
713 2 12.7011 10.6409 14.2656
1330 3 9.56683 9.77512 17.0065
1308 1 10.7447 9.33533 14.8493
58 3 11.0532 11.955 15.0627
513 1 14.1278 8.89921 13.8507
1771 1 12.8122 10.3941 16.6799
800 3 15.2156 9.29363 12.436
611 2 14.1727 10.9683 14.8716
1689 2 15.1798 10.4169 16.1291
651 1 16.6631 12.0593 16.1715
1653 2 14.8809 10.9716 13.2911
1903 3 16.481 11.4472 13.8683
94 3 16.4908 10.0174 15.6425
1024 3 17.9748 10.0317 15.2764
1368 2 14.2677 12.5498 12.793
1829 1 6.88564 5.77777 17.3833
1945 1 18.9728 7.97782 15.8202
541 2 21.026 8.9993 15.4794
234 1 20.4424 10.1974 13.3557
1544 2 18.8002 11.3564 15.2301
961 2 18.8197 12.2851 16.4507
1894 2 18.3089 12.277 13.7426
1387 1 20.8983 11.0081 17.318
506 2 21.308 8.54903 17.0407
1270 2 22.0223 8.8077 12.8714
1722 2 22.2151 11.8693 14.6443
1105 2 21.8902 13.065 17.0485
442 2 24.9288 12.4056 12.9372
1005 2 26.1023 10.6384 17.1254
1350 3 22.3726 12.1129 16.1515
670 1 24.8276 8.55007 13.3421
1175 1 22.7587 9.82898 15.6022
1233 2 26.8242 9.98099 13.1173
150 1 24.7362 11.0925 14.9196
185 1 27.3789 9.52975 15.616
1217 1 27.1169 12.9481 12.5776
1900 2 24.8398 9.60874 16.2758
593 2 27.3107 8.43347 13.4631
1704 3 28.8864 9.46336 17.3445
1920 1 28.9467 10.1944 12.722
1304 3 26.744 11.2716 13.9611
1904 2 26.8822 12.1802 15.1884
19 1 31.2682 9.73531 14.6198
489 3 29.607 9.71782 15.8038
1788 1 29.3072 11.5444 16.9198
1620 2 3.54986 15.1011 13.1005
1176 3 31.4751 13.9493 13.8371
1419 1 31.7808 13.1599 15.8239
976 1 4.84565 15.8982 15.0165
1303 2 7.18801 16.8329 12.9766
1909 1 5.46469 13.775 13.3887
1497 3 5.96852 14.9955 16.6919
145 3 4.88461 14.3554 16.0003
1876 3 8.73261 17.35 16.8
997 1 25.9599 15.5527 4.14057
1003 1 9.11979 11.8054 15.7662
1398 1 7.5039 15.2416 15.4419
717 3 8.51123 15.9477 13.7233
990 1 11.3049 12.827 16.7737
560 3 12.1242 15.3518 14.8973
450 2 10.8997 15.2186 15.6963
301 3 9.6326 14.172 15.9805
658 1 4.9055 9.25304 17.4145
724 1 13.5107 15.5908 13.292
865 1 12.9676 13.0423 14.5153
1867 2 15.7134 16.97 13.4339
1459 1 13.4063 14.934 17.0625
1571 3 14.7347 13.8384 15.73
1316 1 16.4 15.2009 16.3304
88 3 14.9897 17.2117 14.9906
1712 1 15.6969 13.3812 13.6765
896 2 16.4767 15.4618 13.7924
12 2 14.0567 12.7887 16.6949
1098 2 26.4073 14.9108 13.9803
1950 1 17.7459 17.0157 14.4164
99 2 21.5054 12.8292 13.2972
290 2 19.6076 14.8653 16.7459
278 2 22.6353 17.0356 16.6851
1065 1 20.3703 13.2314 15.3123
979 2 18.2062 13.8037 16.7644
1690 1 18.7542 14.7991 13.1996
1835 1 20.8174 16.452 15.126
48 2 18.8293 15.137 15.4926
1628 2 21.3222 14.4224 16.8636
1014 1 18.3691 16.8078 17.2081
123 3 23.2856 16.2006 15.5107
1391 1 25.6383 16.6679 14.9125
874 2 25.1761 13.8204 13.869
343 3 24.3059 16.0474 16.4808
1673 1 25.8943 13.6932 16.4292
1719 1 22.7588 14.0136 15.3427
1662 2 16.7875 17.3151 4.98254
1471 3 4.57484 3.27815 6.54177
226 2 7.84214 17.4866 5.28237
1412 3 19.64 6.27268 17.4751
867 2 3.6626 11.635 17.4584
189 1 9.58501 15.4752 17.3565
451 3 10.1845 13.1601 3.24886
1034 2 4.36693 5.99421 21.5755
1580 2 6.15788 5.77618 20.9032
1480 2 5.36839 4.23041 20.5844
338 1 4.42529 6.70258 19.3155
1687 2 6.97692 7.09677 19.5739
1344 2 4.16804 3.90468 18.4697
1976 2 5.72307 3.91128 18.9066
314 2 5.31133 7.23321 21.6183
1929 2 6.48994 7.70105 18.0167
1868 1 7.48722 7.17223 22.0629
1960 3 21.7054 3.431 27.8611
523 1 30.5223 16.751 30.8852
250 1 8.32504 5.10907 19.7237
1466 2 11.0752 4.95647 19.6386
413 1 10.2863 5.64834 21.52
776 3 12.2648 4.41947 18.4687
1973 1 8.84621 7.80105 17.9784
1799 1 11.7272 7.06979 19.3679
1957 2 8.81951 7.47604 20.2996
1971 3 11.7481 3.77864 21.8091
1064 1 16.0356 3.44935 26.9863
785 1 15.2936 6.84771 20.404
362 2 16.3628 5.61347 18.8113
549 2 15.6046 4.66589 21.3445
14 3 14.3763 4.91791 22.1253
1947 3 16.2687 7.27645 18.7547
1378 2 14.3332 3.42348 28.4277
430 3 16.7677 8.12206 21.6615
211 3 13.4242 7.7487 20.5247
337 1 12.8602 6.62705 22.2874
1239 2 16.8754 5.48046 20.7921
1701 1 13.1178 4.23227 20.4986
817 1 17.806 3.72958 19.2901
351 1 25.3658 3.24445 26.6903
661 2 20.1472 6.70627 21.1021
398 1 18.0716 7.14257 19.6726
241 2 19.3805 5.17143 20.7337
469 3 21.2394 5.82416 20.2337
1289 1 21.7489 6.65319 18.2783
889 2 20.0953 7.61444 17.6565
794 3 19.539 3.63904 21.2128
886 1 21.4465 4.49222 21.8873
1804 1 21.994 8.08426 21.0694
1030 2 22.7563 5.19224 20.3707
29 3 23.8095 7.57616 20.2141
274 2 24.1927 6.12779 21.1012
1245 2 23.1446 3.58305 20.4773
861 1 24.5724 5.33887 19.3886
1469 3 26.3719 6.26675 18.6056
1504 1 27.2722 4.85786 20.2768
1011 1 26.0732 7.92026 20.1142
639 3 31.5845 5.0974 18.6733
1870 3 28.9651 5.61647 19.2403
1055 2 30.5332 6.00308 19.5666
520 1 29.5794 3.67676 18.6615
1751 1 29.3822 6.58871 21.3329
1325 1 27.7786 7.77934 18.0175
1720 2 31.3322 7.21547 20.5893
1616 2 29.0822 4.48659 22.2624
378 1 31.5136 3.96043 21.4277
527 3 4.08936 8.99178 19.3744
1476 2 5.63569 11.1388 18.3065
1827 2 7.29659 11.4895 18.5565
1377 2 7.16507 12.3943 20.091
1389 1 6.88332 9.53347 19.6384
315 2 4.51442 10.4688 19.8259
1912 3 5.65923 8.40349 22.6899
169 1 3.64677 8.9575 21.4846
1510 1 5.30301 12.1748 20.6712
1032 1 16.5127 3.24036 30.1914
1251 2 8.41503 10.7535 17.6396
1994 3 8.64112 9.26116 20.6382
1292 3 10.8876 11.2445 21.1517
1774 1 10.1622 10.0306 19.5564
762 2 12.1411 12.0465 21.6958
838 1 12.7077 12.3499 18.8691
735 1 9.54721 13.0223 21.3323
429 1 9.18994 10.1027 22.3834
1252 3 13.3001 8.77482 19.5481
986 1 12.9306 9.74384 21.0335
1828 1 15.4528 9.16589 19.2471
461 2 15.536 10.568 21.4611
752 2 16.5269 11.8852 21.7835
1656 1 15.8285 11.8282 19.7321
288 1 14.5098 12.6292 22.072
86 2 14.5475 11.771 17.7933
931 2 13.1819 8.52559 18.0458
1362 1 17.8643 9.80575 21.4833
1133 3 18.2155 11.8746 19.22
810 2 19.1363 9.13597 19.601
1767 1 17.6631 10.1154 17.8867
423 1 19.9833 11.1382 19.6915
567 2 20.6561 8.65635 18.7861
798 2 17.9456 11.9878 17.7371
1818 2 19.9592 8.8485 20.88
1104 3 21.7447 9.92961 18.7649
493 3 24.6692 9.93479 19.5753
1866 2 24.3812 9.15891 20.9607
219 1 25.6142 11.3285 20.8293
515 1 22.8881 11.0308 19.951
1743 1 23.4526 8.88358 18.0542
200 2 26.0026 8.95798 21.9232
1491 1 23.8814 11.3132 17.8324
981 3 26.5728 10.5588 22.2638
1254 3 25.9777 12.075 17.5706
172 1 30.4588 8.68768 18.5294
1342 1 28.1184 9.23999 21.1861
827 3 28.949 12.1151 19.4888
1582 2 29.1951 10.8541 20.2845
130 1 27.3117 10.4238 18.9346
528 1 31.3933 12.1712 19.4523
1518 3 3.41543 11.5335 23.0174
181 2 5.27585 14.3437 20.2284
619 1 7.08149 13.7948 21.3162
1667 2 6.7449 14.6359 19.1287
15 1 4.22803 15.9591 21.2356
1706 1 6.85349 16.6559 17.8493
8 2 8.29274 14.8889 19.6774
1972 1 30.906 16.7503 18.3596
1981 1 4.48917 14.0744 18.2805
1117 2 3.77387 13.8021 20.6241
1136 1 8.82746 13.0128 18.6795
1810 2 9.38833 15.6813 20.6628
1285 2 10.72 13.3325 19.3125
1290 2 9.97453 16.8117 21.7564
264 1 11.3357 16.9369 19.5719
260 3 12.0263 14.1348 18.9618
1277 1 12.1558 14.1741 21.2755
1737 1 8.37893 17.4539 19.6184
204 1 22.6068 3.28222 25.9441
106 1 17.5598 17.0269 19.8301
1078 1 14.4446 15.1528 19.6283
700 2 14.061 14.8269 22.1697
431 2 13.0317 16.223 21.1068
1333 3 4.02944 15.2322 29.6564
1592 3 16.6531 15.9696 18.33
1025 1 10.1131 3.9404 17.9059
1749 3 15.3933 16.2517 17.9536
119 1 17.5248 14.4381 18.7961
1995 3 18.4226 15.0483 20.7035
1427 1 18.8526 12.9912 21.5409
1426 1 21.0081 16.3214 18.4172
1646 2 18.9939 16.9979 21.4795
1651 1 19.7376 13.5265 18.5662
1822 2 19.8493 15.8726 20.5538
815 1 21.7152 17.2161 21.523
1845 1 22.3338 13.8388 21.1153
620 2 20.3739 14.8953 21.9034
953 1 23.2368 14.46 18.3204
1186 2 26.0161 13.5829 22.2428
741 1 27.4532 16.128 21.9732
205 3 23.6115 16.1145 18.9285
885 2 24.5102 13.5403 21.2453
1475 1 27.3651 13.2988 18.9959
340 1 25.0875 15.6412 20.4081
1090 3 24.606 13.1354 19.8379
1678 1 30.0719 13.9332 18.1709
1214 2 30.9794 14.1944 20.1334
1337 3 29.5643 15.0815 22.9375
570 1 28.483 14.9572 20.0243
1685 1 30.7012 16.434 21.3106
1479 2 29.1799 17.1918 19.6258
876 1 13.3794 3.86175 31.0421
152 3 31.6667 3.9126 25.2696
1937 1 3.95975 6.43323 23.8896
114 1 6.59474 4.10235 22.7189
1177 3 4.64642 7.02937 25.6392
1805 3 7.63751 5.42624 24.6647
1271 1 8.8518 7.29944 25.069
174 3 8.50006 4.79717 22.1362
1744 2 11.1471 7.40805 26.4006
1617 2 8.53269 4.7473 24.0038
1114 1 11.3729 4.60622 24.069
649 2 10.6547 5.80748 25.5154
1370 2 10.7814 6.87497 24.0432
1901 2 11.5515 5.31029 26.8589
432 1 12.848 6.73085 25.1266
744 2 9.43076 7.91669 23.2602
1066 1 9.53978 4.17907 26.6633
1543 1 28.1767 15.1077 30.8341
297 2 14.754 5.51232 25.0764
317 3 17.0894 4.94541 24.061
139 2 13.8913 5.03332 23.6568
1707 1 16.0758 6.19986 23.4649
1581 1 16.8579 7.35702 25.7206
1421 2 16.1933 4.31219 25.252
887 1 13.3685 3.71717 25.723
781 2 15.7069 5.70627 26.4296
1966 1 13.9363 7.09365 27.225
1460 1 18.7031 3.73821 23.3755
1315 3 19.6801 5.35633 23.5891
371 1 21.4886 6.2861 24.7482
1324 1 18.6461 7.02564 22.7026
706 2 20.5702 7.85777 23.4237
1100 1 18.9279 4.47259 26.5181
1258 2 20.661 3.45466 24.0496
773 2 19.4732 7.20894 25.9434
1939 2 7.07631 14.2193 17.7385
347 2 22.6063 4.50298 24.092
1072 1 24.2341 4.37539 22.2715
1918 2 22.8052 5.93043 23.0449
1488 1 24.7376 5.5243 24.9774
1886 2 25.5582 7.35471 25.0634
1819 3 25.7373 3.74269 23.9701
107 1 24.4155 7.46397 22.6472
281 2 27.0369 7.6311 24.9852
108 2 25.3752 5.42941 27.2371
1596 3 3.40078 3.79976 23.8299
1808 3 30.8103 6.38003 22.6146
478 1 27.2553 5.80695 23.1606
22 1 27.3992 3.31099 25.2542
1013 3 28.6151 4.29757 23.8621
1773 2 28.784 7.44974 25.4287
1142 1 30.2305 5.42728 24.564
1545 1 27.5403 5.79936 26.4834
903 3 29.5215 6.1902 26.4127
1174 3 28.4951 3.89856 27.1914
1455 1 5.91442 10.0145 24.0356
1211 2 4.88725 8.5661 25.6486
2 2 5.16026 11.9072 23.0698
1962 2 4.86813 10.2187 25.9799
804 3 7.47422 12.5727 26.4574
1463 1 6.78984 13.1907 24.3459
892 1 7.44573 10.3095 26.2611
1129 3 6.16184 8.15844 27.6647
1452 2 9.24277 10.1672 24.669
385 2 10.9049 7.74515 22.3932
304 3 8.78938 12.2582 26.852
1352 1 11.3806 8.99981 24.7986
833 3 8.2848 13.2476 22.7888
63 1 9.57806 12.7451 24.4897
1146 3 11.0724 11.1734 25.2677
1358 3 10.3338 10.7089 23.9357
1306 1 12.6373 12.1962 27.3574
1161 2 14.8172 7.84165 24.7841
1113 2 13.3739 8.77259 25.0194
27 1 14.0183 10.9044 24.5304
622 1 16.0613 9.16778 23.2407
507 2 15.9109 11.4363 24.7728
140 2 17.2948 9.5369 26.7155
47 2 15.3239 9.2301 26.3997
480 2 17.3247 11.2783 23.0072
246 2 14.9323 12.8445 24.3847
755 2 18.9431 11.1854 23.0921
245 2 20.0019 8.10958 25.0365
1952 1 19.3202 8.73099 27.391
1988 1 21.0119 9.81313 23.0611
1915 1 18.3347 9.94371 24.7321
805 1 20.803 10.5609 25.9489
243 2 17.1987 11.2413 26.1761
1336 3 19.1112 11.8322 26.0528
640 3 22.7238 10.5201 24.9758
416 3 22.6505 8.54749 23.0534
56 1 22.5607 8.54307 25.2286
556 2 23.0696 12.1455 24.4539
1984 1 25.4588 9.09001 26.5163
329 3 22.7449 12.1558 22.4584
1197 1 23.8969 10.2264 23.2483
121 3 25.0909 11.3224 26.0928
618 2 26.4612 12.056 22.6788
1328 1 22.8982 11.3372 27.1809
854 1 28.7249 11.7925 22.1258
949 3 31.0057 7.81219 23.3273
1968 2 31.3476 10.132 23.2183
1468 1 27.2721 11.5583 26.0456
587 1 27.3585 9.45411 23.8275
1420 1 30.2779 8.823 25.1886
117 2 29.9703 8.95034 22.8891
823 1 3.28759 11.5955 25.061
682 1 27.9364 8.65647 27.0214
1832 3 28.5323 11.3171 24.4896
594 2 29.578 12.019 25.4057
851 2 30.3703 11.068 26.6576
1948 3 6.48725 15.3994 22.3406
1965 1 4.74295 13.8697 22.6413
1855 1 6.92175 15.7416 24.6515
526 2 4.71516 16.4452 25.5075
1578 2 4.49009 16.6682 23.8226
1071 3 31.8002 16.3092 23.0224
989 2 4.72773 13.6199 25.4025
1637 3 3.9721 12.8523 26.3592
726 2 8.6975 14.3958 25.9062
1686 1 12.7703 13.3629 24.2974
1070 2 8.76096 15.8349 25.2204
38 1 8.55241 15.3864 22.8023
1683 2 11.2866 14.581 24.0082
1621 3 11.6183 15.276 25.209
777 2 10.1034 14.8486 25.2117
65 1 12.9501 16.3229 24.0175
1587 3 14.4069 12.6582 25.9437
273 1 13.1364 15.1121 27.053
392 1 16.4641 15.1616 21.9619
926 2 15.0989 16.0908 23.392
1622 2 13.6448 17.2465 26.0971
267 3 16.6553 16.6277 23.3214
1654 2 15.2989 14.1183 23.5623
1139 1 15.915 14.8381 25.3919
406 3 19.8366 17.1281 26.4589
743 1 18.1566 17.482 24.8623
259 1 21.0015 12.9889 23.6119
1028 3 18.449 14.9238 25.495
1102 1 17.9935 12.7064 24.5079
1932 2 18.0736 15.1056 23.9811
1431 3 19.5474 14.6363 23.3814
31 3 22.4731 14.4077 25.1118
1374 1 20.6183 15.3769 25.2175
634 2 21.1752 16.8269 23.5676
39 3 25.7878 14.9441 22.2068
1490 1 24.325 13.7501 25.9134
1889 2 22.3705 15.2367 23.7042
677 3 25.2417 15.9567 26.9065
341 1 24.2264 13.6253 23.2285
1473 3 23.3522 16.0289 22.967
44 1 27.0959 16.713 26.3206
322 3 25.354 15.9727 25.5838
1718 1 25.5279 16.5799 23.3552
77 3 30.4837 15.572 25.9517
1408 2 30.1113 13.742 23.3662
614 2 31.3916 12.7712 22.1565
239 1 30.2009 13.4426 27.0547
1282 3 27.7782 16.0953 24.3448
853 1 27.6074 13.7897 23.9049
1484 1 3.19895 14.8959 24.8317
536 1 29.6594 16.5136 24.2858
516 2 29.5119 16.5677 26.5123
1367 3 7.26533 7.61043 30.0376
809 2 5.99749 3.84908 27.0776
621 2 6.19179 6.57488 29.8851
36 3 4.75455 4.60601 27.8741
1035 1 8.07733 6.5136 27.6184
848 1 7.74367 5.09811 30.2403
1272 1 5.2842 4.61352 29.9128
723 2 7.40341 4.0493 28.087
1434 1 4.42646 6.28346 27.7896
1465 2 8.69336 3.5765 28.9927
956 2 10.2191 4.56762 29.1976
1834 1 12.2576 5.19961 28.7139
1626 2 10.5149 5.62149 30.3083
1400 1 9.51465 8.1193 30.0575
1213 2 12.3232 17.144 29.0094
1730 3 14.508 4.82867 27.6047
1634 3 13.8168 5.68907 30.45
133 1 15.472 5.5824 28.9138
159 3 14.4623 6.86388 30.5765
966 3 18.1432 8.07136 29.3947
1111 3 16.2222 6.69828 27.4585
1516 2 21.998 7.41384 27.2034
127 2 17.5995 4.09994 28.5016
215 2 18.4203 3.6014 31.4093
303 1 19.474 6.17432 31.546
761 3 20.2568 6.63601 27.1946
906 1 21.2349 5.43708 28.1349
771 1 18.3385 6.17001 28.6604
190 2 18.6986 4.49486 29.9324
1782 3 21.1322 5.63649 30.5609
1395 3 22.5466 5.62579 30.3267
263 2 23.8989 4.85431 27.5062
1663 2 23.6626 6.83559 27.1621
1341 2 23.5039 6.42141 29.0582
1359 1 24.0556 4.24301 29.8874
521 1 27.6647 4.36003 28.8116
1535 1 25.9806 7.447 28.9977
1970 3 26.3624 8.17724 31.308
1594 3 15.2502 10.3451 17.601
1120 1 21.8014 17.2005 29.7616
1196 3 17.6749 10.3216 31.5107
1230 2 31.4416 7.84088 29.5501
1747 3 31.8377 4.47988 30.8334
503 2 27.5528 17.2411 19.4876
1785 1 30.0626 5.12071 27.9874
760 2 31.6683 4.70788 29.2571
532 2 28.6455 4.94129 30.9022
252 2 27.9923 6.19233 29.8724
1727 2 29.7511 7.51993 29.5359
1572 1 31.148 6.34896 31.206
373 2 28.3021 7.43713 28.6808
1529 1 7.29759 9.6994 31.0343
407 2 5.87624 11.7765 27.7356
492 1 4.84586 8.23948 29.5924
1657 1 7.61659 9.21451 28.4408
1207 2 4.68817 10.8464 30.0747
1940 2 4.72159 8.86481 27.2835
1260 3 6.45932 12.0035 30.2396
220 2 6.13998 10.5782 29.6122
330 3 3.48555 11.8073 30.8485
228 1 3.53282 11.1415 27.6605
1665 2 9.69423 8.2833 27.1884
1364 2 11.0835 8.27393 27.8208
1046 1 7.92118 12.5693 28.717
457 2 9.86146 10.152 31.6214
306 1 13.2719 9.32989 28.4492
1982 1 10.3728 10.384 26.8697
1522 1 10.2218 12.2411 30.0511
775 2 9.35486 10.2338 30.0364
955 2 10.8876 10.1092 29.7157
1103 3 11.7836 10.7675 28.7141
954 1 13.4962 10.5669 31.604
247 1 15.2574 11.2973 27.5403
1054 2 17.4595 9.33791 30.3408
183 1 12.5443 8.30038 30.6452
129 1 16.2957 11.4097 30.5065
217 3 14.7997 10.3513 29.225
109 2 12.425 11.8914 29.7128
1536 1 16.2833 8.74863 28.5408
353 2 17.0081 12.2064 28.5092
182 1 18.7685 10.8177 29.2847
553 1 19.5875 8.89322 30.8402
1548 2 20.5823 9.81999 29.5003
660 2 20.756 10.8316 28.1347
590 2 21.5385 9.27007 27.44
396 1 20.9855 12.9153 29.637
1385 2 19.8341 11.9321 27.2412
1373 2 25.4861 12.694 30.17
921 2 23.2489 8.58514 27.4134
1095 3 23.6067 9.91408 31.4384
434 1 22.8746 9.3596 29.6057
1140 2 25.4517 11.3017 27.6607
494 1 25.7863 10.0043 30.8713
1199 2 24.8562 12.4817 28.6475
842 1 23.3678 12.16 31.0015
1386 3 26.5937 9.72127 28.5914
409 1 27.521 12.2151 29.1927
122 2 28.9036 11.2277 30.6789
1930 2 29.5856 11.3811 28.264
20 2 30.3909 9.70039 27.6987
964 2 31.8701 8.72092 28.1226
1977 1 28.4337 9.43483 29.4603
90 1 31.1103 10.0093 30.1018
510 2 4.15468 15.8614 31.1441
1079 3 7.51341 12.8873 30.6775
696 1 5.82505 13.8029 27.0339
1872 2 5.73242 16.3689 26.9062
1911 1 5.2059 13.7814 30.963
197 1 5.58015 16.4788 29.141
1838 1 3.31485 15.3445 27.5961
1353 1 10.5771 16.6311 26.7502
1642 1 7.97092 16.051 27.9572
1714 1 8.5839 14.752 30.7045
1151 1 10.405 13.9273 27.1996
1700 2 9.57039 5.92624 31.6871
1716 1 12.4222 13.2492 31.4323
72 2 9.96258 16.7768 29.1044
471 3 9.75773 15.2879 28.7115
482 2 11.7125 13.3163 29.3808
421 2 8.48376 17.0225 29.8847
1287 1 11.7125 15.3741 29.5861
299 1 11.0852 17.1379 31.267
1593 3 16.3753 13.4106 31.0214