# LAMMPS data file written by OVITO Basic 3.7.11
2000 atoms
3 atom types
3.2964739722 31.7694143688 xlo xhi
3.2964739722 31.7694143688 ylo yhi
3.2964739722 31.7694143688 zlo zhi

Masses
 
            1   12.01100000             # C
            2   10.81000000             # B
            3   47.86700000             # Ti
 
Atoms  # atomic

319 3 6.12187 7.30894 5.43847
1264 3 3.90103 3.98641 5.8645
1833 2 7.32865 5.69843 3.87652
103 2 4.75507 3.60724 7.21553
958 1 5.19261 5.24899 4.41713
97 2 7.01767 7.26946 4.06662
271 1 4.21569 7.82654 6.19727
832 1 7.97406 6.108 6.24461
1682 3 7.2796 3.90056 3.6253
1517 3 3.39626 6.57497 4.61539
1132 1 12.5956 16.109 3.25652
483 2 11.9729 4.60152 6.48424
1558 3 9.63609 6.73538 6.71721
1490 1 10.5091 3.75523 4.58923
396 2 10.517 5.67833 7.5157
1783 3 12.0028 5.03571 4.99448
1049 3 11.8842 5.29321 3.76188
1584 3 8.44075 4.96413 3.31773
1091 1 11.9227 7.45355 8.16086
459 3 12.1575 7.23665 6.24121
243 2 8.74452 5.23914 8.19911
432 1 10.3472 10.9661 3.75458
929 1 13.9997 5.6375 5.7815
1303 3 14.706 5.37266 7.7599
1859 2 13.5761 4.39804 7.49021
206 3 15.461 4.37599 4.74122
587 1 16.98 5.65036 4.70138
1365 1 17.751 7.75303 6.81273
1977 1 16.2985 3.55323 7.00808
971 3 24.8256 3.57526 13.7277
1963 3 18.6627 6.03141 5.60646
273 1 19.9545 8.03204 3.55203
398 2 19.3237 5.77724 7.7349
157 2 20.7623 6.3122 5.73515
1824 3 19.8548 5.28763 5.04449
941 2 21.4476 6.98015 7.21532
1003 1 21.7794 4.60714 3.71328
303 3 18.9044 5.09184 3.30166
1767 3 22.2558 8.35784 4.43848
342 1 21.795 4.75545 7.64406
1727 1 23.9667 7.75702 6.52858
819 3 23.603 5.79026 3.96787
891 2 23.8786 5.64501 5.25281
384 3 25.8926 7.48663 6.7592
1657 2 24.1524 5.21729 6.71812
1044 1 26.5302 4.01665 4.96086
1014 2 26.357 6.23945 6.87604
950 3 27.6444 5.68892 7.39029
1909 2 31.4513 5.15925 5.16992
621 2 29.8484 7.15723 6.33509
49 3 28.3597 4.92651 6.40621
1238 2 30.832 7.92216 4.73634
199 3 29.6892 6.92127 7.74253
292 1 30.1686 4.89651 7.42844
1960 2 3.6232 3.30358 4.50549
802 2 29.0219 6.17 5.33723
99 2 3.73063 8.75788 9.59038
525 3 30.0931 5.17008 4.60784
752 2 5.78603 8.65989 4.87357
79 3 4.53009 10.0111 7.2237
78 2 8.46459 10.1239 4.05845
393 1 5.55254 9.02215 8.53587
803 1 6.84111 12.0933 3.69473
31 2 10.694 7.81755 6.10098
900 1 8.11963 9.05177 5.89891
816 2 8.75236 13.2584 4.55714
1217 2 10.3138 9.26953 5.04509
1755 2 9.3098 8.90401 3.49672
1935 2 10.2623 9.54098 6.81987
533 3 11.158 10.6571 7.77312
1780 3 17.4318 17.1053 11.7004
1122 3 11.6793 11.8535 7.28025
1463 1 12.511 9.55026 6.10314
1740 3 15.4342 7.86095 6.39431
833 2 15.2958 7.84522 4.79709
1472 2 14.2608 8.29886 7.31873
640 2 14.9189 10.5329 4.2866
397 2 16.934 10.9543 3.65652
670 3 13.9618 10.7859 5.56994
240 1 16.0232 9.74442 5.96722
45 3 17.1162 7.76194 4.34215
300 1 13.6093 12.7159 6.61608
1654 2 17.2771 12.3361 4.42429
821 1 24.1115 7.94708 3.51778
1006 1 15.9103 4.319 15.946
999 3 18.2676 8.94359 4.86379
1708 2 21.2954 8.10397 6.10567
1 1 19.1219 10.628 5.5586
1636 3 20.6955 9.47187 5.5506
606 3 17.0914 10.0329 7.83332
109 1 21.5785 11.2552 5.70316
1615 3 22.2101 11.8897 7.39228
1210 1 25.9174 11.9666 4.76873
1383 2 22.2349 9.21017 5.55013
1848 3 23.2162 12.0642 4.82564
558 3 24.3724 10.6235 5.06325
1386 3 24.0566 9.31146 5.1231
671 1 26.6089 9.38284 5.4119
322 3 24.48 10.8731 7.90185
1388 3 22.8872 12.3271 3.52663
924 2 24.1951 13.11 3.90293
867 3 23.9003 9.57964 7.62914
1916 2 29.2924 11.137 4.45495
826 2 31.3862 10.0771 6.07081
1337 3 31.732 8.85839 7.65095
395 2 29.8858 9.61999 5.00395
485 1 28.0406 11.7423 5.95495
1841 2 30.3528 11.5987 7.23374
334 3 28.1076 9.61638 6.67466
1054 1 31.0301 12.2661 5.23474
486 3 10.4001 4.12318 14.9865
421 3 27.5137 9.86715 8.0446
1356 3 30.1019 10.4777 3.30406
628 3 27.4635 10.7492 4.37765
1990 3 6.78465 13.2995 5.29927
348 1 3.53611 17.1856 6.57298
1948 3 4.96824 14.8827 6.96872
504 3 5.20684 14.7751 5.72712
1938 2 5.40349 13.6816 4.72915
1719 2 6.55286 14.9326 4.30335
1263 1 4.2697 15.8671 3.68073
556 2 4.17883 15.1901 8.16665
51 2 7.99249 16.636 7.07538
341 3 27.8615 12.6844 15.8127
1392 1 10.5569 14.3334 4.20284
1079 3 9.71453 14.0142 6.73039
1347 2 8.30809 15.0892 6.52219
1804 1 10.6471 15.7781 6.93825
717 3 10.7361 16.0683 4.62262
1278 3 7.89722 14.3371 5.02732
1597 2 10.8232 13.0347 7.03404
216 3 12.5784 15.0824 7.94205
1873 1 28.5779 17.5161 4.34172
1697 2 13.2226 10.4754 3.69509
443 2 18.8889 4.23564 7.5518
1001 2 13.1272 13.6732 3.9752
935 3 15.1942 14.2173 5.65363
954 3 14.5337 14.0915 4.39729
1625 3 16.7331 17.1003 4.35231
179 2 15.8018 16.5259 7.24433
1862 1 13.3585 15.3682 5.84173
1865 2 17.9369 16.8217 5.11756
829 2 14.6827 16.9356 5.89422
1603 2 16.2379 13.0807 5.52695
1196 3 16.5125 13.4573 7.0737
1716 3 20.1864 12.7505 5.53803
814 2 22.1304 17.1674 3.83903
1797 2 18.6006 13.0622 4.78645
869 1 21.4196 14.0378 4.8968
161 2 19.0919 15.8013 7.20839
1173 3 19.0928 17.0018 6.26602
1552 2 19.8376 16.2627 5.20574
605 3 20.7875 16.6363 4.20983
576 1 20.1639 13.7013 7.49748
1934 1 21.1682 16.464 7.97742
580 2 20.0065 15.4508 3.5317
204 3 24.8781 17.2019 4.26133
339 3 23.5541 16.8019 4.20022
1223 1 24.6729 15.2196 4.69186
1765 3 22.0245 15.2009 6.4464
815 3 22.9035 16.1519 6.71729
205 1 25.9381 13.6998 7.523
1374 3 24.2296 16.6584 6.42037
1353 3 30.5596 14.2903 3.92059
1660 3 27.3229 13.3563 5.62895
1366 3 30.0536 15.2201 4.56354
1325 3 27.4639 14.6146 6.24482
256 1 29.5369 15.5825 6.39308
1500 2 26.8194 16.5394 4.16284
1275 3 27.9964 16.0644 5.39484
910 2 30.7003 13.2882 7.21451
1821 3 31.3691 14.5382 7.26577
1882 2 27.4641 15.3499 7.49315
902 1 12.9692 7.97777 4.29657
974 2 6.1153 4.19998 10.5744
1811 2 7.23136 5.91216 11.927
751 3 4.85629 4.37826 12.3563
478 3 5.8796 5.24772 11.6722
480 1 6.28029 6.47744 9.97475
1230 3 7.40938 5.80665 8.39726
1524 2 8.2505 7.23289 8.15976
1685 3 4.41499 7.28843 8.62315
955 2 7.94981 4.48936 11.4254
1650 3 9.44811 8.13831 12.1485
57 3 10.8824 4.45988 13.0768
1391 3 10.0163 4.31846 12.2252
280 1 8.99196 6.71026 10.4763
905 2 11.7116 6.94429 10.7142
1047 3 31.1086 15.8482 15.1808
817 3 10.6152 7.80637 9.4301
524 3 28.7534 16.9066 15.5025
1032 1 13.7591 6.15485 13.3382
408 2 14.6798 3.76042 10.4595
1766 3 13.1459 6.40908 10.9251
1281 3 14.0653 4.47536 8.90184
1898 1 15.662 4.03282 12.2218
363 2 13.9757 5.34545 10.2717
681 2 15.8764 7.28284 12.3864
1193 3 15.5234 6.08843 11.3372
101 3 18.747 7.20934 8.2769
1556 3 17.1307 6.00935 11.7401
537 3 22.3885 6.95529 8.46377
1777 1 17.5601 4.20061 10.1013
1759 3 19.8384 5.31075 9.81974
638 3 20.4166 4.29621 9.17198
56 1 19.4769 7.57657 10.053
885 2 18.2397 5.47225 12.452
423 1 21.2812 4.93872 11.0634
896 3 22.0076 7.99036 9.62181
1045 3 19.546 4.79478 12.6048
1037 1 24.3417 6.91719 9.48909
660 3 23.368 4.56717 9.24749
1231 3 24.1586 4.64858 8.15962
928 1 24.1601 3.69542 11.9456
1289 2 25.6703 6.80984 11.2758
182 3 25.8772 5.29389 11.6888
1595 2 23.3876 6.16071 11.3571
1555 3 26.3917 7.35733 10.1944
333 1 26.9758 8.20004 8.26785
1752 2 29.1316 17.3087 10.0364
1950 2 28.8585 3.38774 9.42388
1955 1 26.9923 5.20544 10.2546
1150 2 28.8399 6.13769 8.53921
67 3 31.2901 5.85593 10.4019
963 2 3.80081 6.23994 9.57829
246 2 30.2941 4.84433 9.61582
64 2 29.039 4.49464 11.0633
37 3 28.497 5.57276 11.7197
244 1 30.5184 5.48821 12.7552
258 1 4.10396 12.9865 8.36386
750 3 5.40696 8.62216 11.8942
1033 3 6.03448 9.39883 10.7004
947 1 5.75866 11.8003 10.3326
1184 3 4.37914 11.0219 8.0939
1355 3 6.89599 11.978 12.1196
1867 1 31.8339 9.71719 11.5038
1693 1 7.44432 9.36955 12.4438
332 3 8.06521 8.53977 8.77954
1202 3 4.21691 10.2046 9.76391
1754 2 9.40168 9.46289 8.29983
1699 3 7.87875 11.082 11.7917
1390 2 9.4018 11.5235 11.3764
190 2 10.4465 8.22141 10.8997
249 3 10.154 12.5935 10.3224
1901 1 11.1678 10.2117 10.0602
1895 3 12.8918 9.30453 9.12028
713 3 10.5735 10.8181 12.4471
9 3 14.0058 8.89092 8.53561
166 2 12.7149 10.8622 8.24109
110 1 15.2237 10.3415 9.08411
1335 1 13.9338 8.38315 10.606
15 3 16.2524 10.7361 11.2721
1696 2 15.8692 9.54794 12.2483
514 2 17.936 11.7141 10.3345
386 1 13.531 11.6371 10.8876
657 3 16.8664 8.49404 12.3694
375 3 14.2609 9.33031 12.4414
687 2 14.146 12.4043 8.57198
574 3 13.7319 12.2222 13.007
952 1 19.8752 11.0025 8.47943
498 3 17.9976 8.1163 13.1269
1293 2 17.9659 10.3681 9.3533
234 3 19.387 9.3272 9.49085
956 3 20.7852 8.97752 9.35312
1232 3 20.9885 12.2205 9.44499
1723 3 21.8458 12.7131 8.42295
360 2 18.7282 13.4013 12.5502
513 2 24.1756 12.288 8.22401
1519 3 25.5593 8.54274 9.64082
583 2 22.7042 11.9802 12.234
1970 1 22.7204 10.2661 9.5461
1951 2 25.411 11.5309 9.1124
860 2 24.6371 9.60897 9.34817
773 3 24.5365 10.8544 10.4497
987 1 25.5354 13.0057 10.9823
541 3 24.1326 11.0356 11.8397
1734 3 26.6342 12.3513 9.22002
1459 2 26.1187 9.43973 12.7088
1853 1 29.8168 9.03579 7.95354
884 1 28.5446 8.03265 11.1228
551 3 30.9118 9.56407 9.64909
326 1 27.0554 10.4187 10.0527
1316 3 29.6773 9.79959 10.7603
720 2 30.1887 11.8068 10.484
1034 1 29.2062 10.5637 12.3113
1691 2 31.0031 11.1386 8.90518
94 1 30.8552 13.4023 12.3791
1653 2 30.7601 12.6025 8.94076
1318 3 27.2141 9.6609 11.9783
1770 3 17.8816 3.3661 8.05698
460 3 6.89939 13.3964 12.9491
1381 3 5.06552 13.7749 10.2839
1822 2 4.78705 16.6212 11.9854
1234 2 6.77898 14.6617 11.7645
1025 3 4.14609 14.7864 9.82054
603 3 5.53457 15.7114 12.7599
559 2 6.6054 16.0142 9.53178
1758 3 7.4014 15.1599 10.3466
1458 3 5.49282 16.9678 9.7929
65 2 10.6047 13.7261 10.7247
986 3 7.90352 16.5516 8.76069
1181 1 8.9316 16.3542 11.5603
1147 1 12.6464 13.6229 9.25639
520 2 10.6997 17.3176 9.64516
1176 1 8.75095 14.346 8.89095
129 2 10.9183 15.4235 10.7666
614 3 12.3823 15.3291 10.9576
225 3 9.14777 17.0126 9.52557
1995 1 12.1533 13.5217 12.8857
837 2 15.9925 17.4663 8.99265
1813 2 16.1461 14.5613 8.50411
1506 2 15.6496 12.1751 7.72717
770 1 13.3991 16.5678 8.9945
1083 3 15.0209 13.4259 9.36309
995 3 14.4891 13.6833 10.6946
1182 2 13.5019 14.4079 11.4389
684 1 16.6906 12.5861 11.8293
1526 3 15.7881 15.9474 8.82317
641 1 15.897 15.4759 11.3515
1735 1 12.7138 16.835 12.1622
966 2 6.65784 9.70332 4.04365
991 3 17.7138 14.1494 7.49102
1382 3 17.9201 14.4194 11.9898
595 1 20.0212 13.7208 11.0586
797 2 18.5619 15.9816 10.1374
890 2 19.4864 14.995 8.96785
345 3 21.5683 15.8184 12.1725
305 2 22.0915 14.9175 10.6154
630 3 17.759 15.8397 12.7181
185 3 21.0172 14.9911 13.014
452 3 21.1344 14.6541 9.28217
1952 1 19.3484 17.5516 11.5187
145 3 5.12346 3.38934 16.95
343 3 25.4805 14.6062 9.99217
138 3 31.1556 14.8383 13.9688
251 2 22.9189 12.2609 9.94442
1985 2 22.936 13.4017 11.1555
543 1 23.1389 14.8447 8.53193
294 3 25.1042 17.1616 10.3414
1815 3 25.1136 16.0292 9.55202
418 1 23.8198 16.4704 12.0445
487 3 27.155 14.1753 13.0959
1671 2 28.7089 15.3167 10.9035
589 2 31.5542 13.6483 10.3448
1207 3 27.698 14.0293 15.8424
530 1 28.017 13.6618 9.43212
181 3 28.6514 15.1865 8.32048
173 1 30.6001 15.5843 9.46661
1027 3 29.9695 13.7948 10.6133
501 3 29.4234 17.1539 13.9547
462 3 30.2282 17.3864 10.8462
1613 3 27.1879 17.4979 11.5675
1239 1 5.03254 6.82868 13.2577
377 3 7.08449 5.79977 14.2713
1874 1 7.60557 7.20943 15.7977
1492 2 3.83827 7.72547 14.9654
29 1 5.20532 5.03268 14.9314
1312 3 3.37752 6.48234 14.3187
1750 2 5.36387 8.0802 15.3642
455 2 16.3506 10.065 17.0537
1666 3 6.95852 5.30678 17.3095
96 3 9.10045 4.02456 15.1735
370 2 11.7037 5.29769 13.7628
1019 1 8.81952 6.01213 12.9817
1559 3 8.07188 4.87368 14.7679
1317 1 12.5047 3.62086 15.1923
1504 1 10.4575 6.38117 16.9128
221 3 11.4224 6.53266 14.6615
1983 3 11.7691 7.39029 15.676
601 2 11.871 3.67819 17.3556
1319 3 8.13903 5.90983 17.4139
611 2 13.6924 3.9937 17.1772
154 3 13.84 4.0137 13.5417
922 3 15.5047 6.86134 13.9181
58 3 14.1502 5.37272 16.8027
1502 1 16.3391 8.5553 14.7387
1544 3 15.2628 6.05782 17.1935
170 2 16.6834 6.33372 16.9607
1577 3 17.2197 7.74449 16.7381
93 3 17.8812 5.23998 16.5362
1068 3 18.1255 4.24022 15.6881
1663 1 22.5705 5.75699 14.4407
542 2 22.4079 6.7767 12.497
1840 2 22.8131 5.12333 16.646
385 3 21.4674 7.81696 13.292
1568 2 22.1737 6.64833 16.4974
517 2 23.6993 4.09024 17.3405
175 3 22.9199 5.15942 12.6398
639 2 3.92623 3.58913 13.2443
830 2 27.1734 4.61612 15.8344
1864 1 25.2528 5.65506 14.0284
838 3 26.8344 6.31056 15.4214
1291 2 23.9332 7.55812 13.4478
569 3 25.9805 4.21024 16.6498
1957 1 27.49 4.40774 13.1187
697 2 27.8793 6.75889 16.579
87 3 27.8677 3.40348 15.0258
1880 1 27.1145 6.95858 12.6515
1979 3 29.9867 4.4173 16.3864
1842 2 12.0747 12.2496 16.61
1868 3 27.5281 8.42728 17.0547
1422 2 29.479 3.98191 14.94
1812 1 30.146 6.71592 15.6158
637 2 27.5482 15.588 15.57
1579 2 5.21884 8.9959 16.7673
1918 3 3.66207 9.08553 16.8951
1618 3 6.41901 9.70781 17.4492
1746 3 6.83825 10.9088 16.9783
253 3 6.36968 11.8235 15.8834
1222 2 7.33129 12.8635 15.3936
972 1 3.40289 10.7871 15.0108
490 3 8.99747 3.68208 5.87356
540 3 8.01114 8.80375 14.3445
1313 2 8.58936 9.41355 16.8762
3 2 12.9718 8.40651 14.8824
1683 1 11.5691 8.42344 12.9362
479 3 8.63525 9.22661 15.3927
862 1 12.5267 9.02196 17.0353
453 1 10.0548 10.5701 15.2915
978 3 11.0668 10.1652 13.4548
371 2 8.75635 12.293 16.2191
858 3 17.0856 9.04697 16.617
707 2 13.7983 8.56374 13.5456
1896 1 12.9705 10.8304 14.4205
1528 3 14.7722 10.293 14.9921
1077 3 14.2328 9.86982 16.3469
845 1 14.3112 11.6745 17.4031
719 3 16.0323 11.061 15.0862
1433 1 18.1607 10.8911 13.9164
1108 2 16.5839 12.5276 14.9737
930 1 20.2611 9.05484 16.1446
632 2 19.1302 11.0569 16.3715
1425 3 19.1619 8.46239 12.8714
394 1 21.8219 11.7171 14.996
91 3 20.2596 8.83234 13.4453
738 3 19.9392 11.9396 17.4097
236 3 21.2588 11.8234 12.7449
594 3 22.3851 8.13207 16.7429
985 3 25.2357 7.35623 12.8155
1283 2 22.8883 8.98608 15.736
568 3 22.6594 8.04583 13.9805
124 1 25.1372 10.9361 13.601
949 3 23.245 10.6384 15.9862
1284 2 24.8339 9.82049 15.7285
1892 2 27.0162 11.1051 12.2165
1598 2 27.053 11.7104 15.6166
85 3 26.2075 10.6128 15.48
1076 2 30.2589 9.05913 14.7195
643 2 26.0685 9.34974 14.6928
158 2 27.3621 8.48455 15.3319
1379 3 28.8816 8.38897 14.91
2 2 29.8019 8.50761 13.1958
81 3 31.3887 8.61447 16.0465
104 3 30.9373 9.74646 13.5554
1606 2 31.3802 13.0363 14.8494
586 1 26.336 17.093 6.05829
1241 3 7.71222 13.7342 14.098
1810 1 31.0976 16.6773 12.7016
1608 2 4.18779 13.0937 16.2455
1261 3 6.62372 15.7348 16.0144
944 1 6.87978 17.1052 13.8788
1443 1 4.92359 14.2612 14.5979
1397 3 6.99881 14.804 17.1838
1090 3 4.16509 14.4831 16.7157
1441 2 3.3689 15.9123 16.7165
1093 1 5.70808 17.1863 16.7064
1195 2 28.9859 15.7793 13.4945
1358 3 8.93403 16.8314 14.6545
1331 1 8.85447 14.8579 16.0764
908 3 9.87051 13.0079 15.3201
842 2 11.3233 13.2438 15.0742
1890 1 10.7572 16.3774 14.3381
1218 3 12.6857 16.7099 15.6322
700 1 12.4733 14.7259 16.5187
873 2 13.5768 13.6821 14.3184
248 3 9.21669 16.8997 16.1047
1248 2 14.761 13.4353 13.235
1790 3 13.2499 12.5752 15.7594
758 3 15.6631 15.9208 14.7585
1334 2 15.3153 16.513 16.3229
472 2 14.5177 15.2884 13.5851
667 3 17.062 13.3265 16.2868
451 1 15.2122 14.1235 15.9185
1624 2 13.2271 15.8913 14.3647
1845 3 17.7516 12.5356 13.7417
1085 1 16.9291 14.4299 13.9185
1286 2 18.4035 12.4694 16.82
1436 3 15.5269 17.3726 14.2362
1269 3 20.0151 16.1272 17.144
1689 3 28.3251 14.8785 12.4898
1503 3 13.4626 17.1007 4.791
937 3 21.5862 13.9737 15.8532
435 2 19.0531 15.3351 16.5147
678 1 27.0894 16.6635 13.6323
599 2 17.9287 14.3412 16.3048
1891 2 21.7674 13.6187 12.6337
468 3 18.5836 15.1901 15.1374
310 1 20.5277 15.8079 14.8596
1009 2 20.8224 14.1951 17.1485
19 1 23.3847 13.3234 17.0747
200 2 27.092 12.6766 12.6315
1996 1 23.8211 16.6382 17.5435
1945 2 22.3841 13.8309 14.5297
171 3 26.28 16.4971 15.5252
1729 3 24.428 15.0548 12.9686
21 1 25.8297 14.1708 14.5084
70 2 23.5907 14.8764 14.0816
1843 2 24.3857 10.9702 17.543
783 2 6.08709 3.53879 13.0007
1305 1 10.0665 3.39666 7.80785
191 1 7.14898 3.55015 8.68433
1098 2 11.9211 3.3681 10.5865
1302 3 31.1337 3.45527 12.6202
926 2 9.91556 16.6746 17.3816
1131 2 15.6545 8.14395 3.36095
95 2 9.56643 13.5259 17.5286
1644 2 30.9482 6.29053 3.45509
470 2 5.62576 6.19587 19.6633
1420 3 6.11686 5.44577 21.0465
1725 3 4.65684 3.71241 19.871
1875 2 5.52969 4.12333 21.4083
946 1 3.50957 6.76949 19.0198
655 1 7.07592 7.75505 18.3502
1678 3 6.36818 8.29445 20.2924
55 3 4.87651 4.90624 18.9678
1297 1 5.10349 7.24619 21.6128
380 2 5.82473 4.71325 17.7384
18 1 7.36746 4.06604 20.1589
252 3 8.85704 5.96082 20.8184
1871 2 11.5638 5.23333 20.5508
1794 2 8.58134 5.79088 19.4448
921 1 10.2183 6.81165 22.7061
1048 1 10.5309 6.88108 19.8039
1581 3 9.09445 5.10883 18.1683
1165 1 10.7332 3.72182 19.3019
1338 3 11.6624 7.63358 21.6322
336 2 12.1234 3.70273 20.9254
1330 1 12.9275 5.5068 18.7966
1477 1 14.1949 4.89753 20.9164
1224 3 15.1572 6.75232 19.5244
1099 3 15.8847 6.18507 20.4854
1350 3 13.9888 7.41327 19.7042
1481 1 16.5858 4.95952 18.7702
1201 3 16.2062 6.49315 21.7844
936 3 16.7765 7.93726 22.1516
477 2 20.5353 6.51533 19.0514
1100 3 18.4924 5.33762 18.8252
111 1 20.3578 4.34988 20.1829
1226 3 19.8454 6.56614 20.6069
350 3 21.8921 5.8806 17.8954
1039 2 20.8557 6.92598 22.0714
1885 3 18.4768 3.94793 19.591
1583 2 25.7317 4.68907 19.3768
661 3 24.5667 7.33366 18.4857
1966 1 23.4637 5.39442 19.0808
1621 3 23.4434 7.39435 19.2981
1114 2 27.5394 4.40436 20.2515
686 1 26.1294 6.2202 17.6789
685 3 25.0641 4.51132 17.6615
872 2 26.5916 5.65788 20.3413
1483 1 25.3754 3.64186 21.7486
776 2 26.3908 6.34255 21.6027
1416 2 28.1074 7.32147 18.1688
286 1 29.0699 6.63076 20.314
515 3 31.1994 6.4202 21.0171
692 3 30.1042 4.66779 20.8164
1448 2 29.0788 4.27574 19.8401
1252 2 31.8374 6.02758 22.4357
1707 3 30.4594 3.31787 21.579
1426 1 31.4019 3.59255 19.4063
618 3 29.7005 6.73787 18.3688
1276 2 7.67137 7.92696 21.5681
1566 3 4.71647 11.9942 19.5378
694 3 6.18691 11.4075 20.0483
446 3 5.93537 12.3047 21.3912
1229 1 5.05002 9.44203 19.2561
1736 3 8.47776 9.53742 21.5808
275 1 8.04486 12.4115 20.5987
977 1 7.97049 10.2878 18.6969
1667 3 8.594 10.7435 21.1321
1417 2 10.1559 11.2449 18.1143
1273 1 10.4423 10.6925 21.8364
1527 3 10.1993 8.54384 19.0227
214 3 9.12208 12.3149 18.6826
1711 3 11.9182 11.6009 20.2758
1427 3 12.7577 7.61419 18.704
1259 2 13.0021 11.2617 18.6899
139 3 9.68959 9.5001 18.1787
162 2 13.2262 8.74655 19.9017
847 3 12.2326 8.98824 21.2836
1081 2 22.0662 16.9474 19.5136
505 1 13.4503 10.6784 21.1578
1327 2 15.9286 10.7707 18.3502
1399 3 4.32609 3.84339 30.1908
755 2 16.6561 9.51532 19.2798
1887 1 16.3892 12.3188 20.2152
34 1 14.9275 8.62115 18.004
1536 1 18.2443 7.31149 19.3139
1158 3 19.7826 9.065 20.9798
1487 1 18.6832 10.8293 18.7737
1126 1 22.5274 8.21941 20.9753
378 3 20.0127 7.87003 21.582
169 3 19.9669 9.1803 19.6301
1745 1 17.5713 9.69711 21.2437
1311 2 22.9034 11.7965 19.8125
219 3 20.7892 8.34316 19.0146
1981 3 19.516 12.3021 19.8636
983 1 19.4432 11.9591 21.8623
1348 1 27.1279 9.8827 18.1837
266 2 22.0464 7.59947 18.5145
733 1 25.453 8.22697 20.3065
382 2 24.9832 8.74906 17.7992
975 1 22.7121 12.3229 21.6555
1706 2 23.5695 10.1315 22.021
561 1 25.87 11.5407 20.1531
1567 3 25.3204 9.76892 18.7721
1586 3 22.6309 10.3471 20.5614
1257 3 21.8447 12.4891 19.0178
1820 3 25.3422 12.0617 17.7174
1288 2 27.7255 11.7061 21.793
1588 3 24.3828 8.73675 22.049
429 3 23.288 13.1837 19.458
142 3 29.7687 11.821 31.6737
1578 2 27.3821 8.07178 19.671
414 2 31.2134 11.1884 20.5125
1962 3 27.8622 9.34193 20.328
379 2 3.61426 10.6331 21.6759
961 3 31.6706 9.56691 20.5076
237 3 28.2586 11.4141 18.7536
1292 2 28.5565 10.7864 20.8844
331 2 29.3715 11.7445 19.619
391 2 31.2846 8.18244 20.8239
1206 2 28.7104 13.348 20.3974
250 3 31.1581 12.6778 20.2878
127 1 4.05174 13.2093 23.0101
1620 2 6.05848 13.9931 21.8904
658 3 5.06479 14.6688 19.7356
1119 2 3.51308 14.1829 19.9585
1134 2 4.99509 15.1386 21.402
1133 2 6.26456 15.5923 20.2567
267 1 8.04265 16.7475 21.4643
201 2 5.01898 16.8187 21.6822
1227 1 6.65927 12.8734 17.9806
1419 3 8.30004 14.4312 17.8847
748 2 5.96718 17.1481 19.696
865 3 10.0321 17.1667 22.4328
698 2 10.5149 12.6471 19.9293
948 1 9.82207 14.8697 19.2965
735 3 9.95982 13.6419 21.4846
1052 2 11.1282 17.2371 19.4958
356 2 11.7304 16.2017 18.0681
198 1 12.7767 15.1896 19.7128
967 3 13.2207 15.9912 21.7312
1571 2 18.7454 17.1806 28.562
1709 2 28.2381 17.3787 29.9551
1435 2 12.8635 12.7132 19.4528
1832 2 20.9339 12.6207 17.9733
951 2 13.4647 13.666 18.451
352 2 14.1569 13.4093 20.1041
1482 1 16.2757 16.3063 19.2063
1971 3 13.8028 17.0904 19.0371
899 2 14.3415 16.4993 20.9471
1679 2 30.8623 14.2268 28.278
787 1 30.4108 13.0482 30.2474
1491 3 17.7369 14.884 19.9661
1373 2 20.1642 14.1261 22.7671
156 2 18.5569 13.3842 19.8214
743 3 16.8522 15.0183 20.9748
1449 1 20.1958 14.6349 19.1299
939 3 20.7725 15.1919 20.7292
1256 3 21.317 14.3107 21.4276
188 3 21.4624 16.1549 17.7895
647 1 21.0306 16.8873 21.5876
1798 3 26.8117 16.6638 21.1452
1926 3 24.4267 16.0874 19.3534
1486 1 22.6699 14.9124 20.0614
50 3 25.4447 13.4472 17.9452
1010 3 25.1637 15.6609 21.8004
284 2 24.7227 14.9844 18.0948
165 2 25.821 15.8978 20.1392
703 1 24.164 17.5218 20.4803
442 3 30.9312 15.2026 19.9943
1245 2 29.6706 15.6913 19.279
555 3 28.2643 14.8278 20.1361
1751 2 26.7048 14.2645 19.8983
184 3 30.3649 17.054 19.692
1505 3 30.9588 16.3088 21.2102
1828 2 31.5593 15.4324 22.4091
920 1 15.1892 12.5741 31.7901
444 1 7.59678 5.75406 22.6497
1781 1 4.9251 6.97282 24.6638
691 3 5.73634 4.63857 24.3327
1838 1 7.32163 4.84685 25.9958
464 3 3.86636 4.80692 24.7237
134 3 7.57326 6.72864 26.7373
1643 2 4.32878 5.38292 26.2557
241 2 3.40311 6.61409 27.0681
1300 3 6.70713 7.43257 23.0306
942 2 6.45654 7.48603 26.6976
1648 3 3.49915 4.8817 27.3892
1389 3 27.6838 12.7705 30.7103
689 2 31.5217 4.86563 23.3954
1296 1 10.368 3.9888 22.5902
809 2 12.1031 5.0009 22.2521
1607 2 12.5082 6.56677 22.9404
36 2 11.2466 7.1965 26.0295
1290 2 10.8687 5.61776 24.7083
871 3 9.45268 5.83272 24.0951
27 3 11.4144 5.83166 26.919
347 1 7.9965 7.98474 24.9411
120 3 13.5309 5.31785 22.879
1352 2 16.9114 3.73336 25.8248
63 1 12.6137 4.83778 25.5447
1564 1 14.9953 6.96254 23.5092
656 2 16.1624 3.59838 23.8025
1771 3 16.9533 4.73599 24.4256
914 1 16.4872 5.95576 26.4358
433 2 14.6735 7.88764 26.1585
1110 3 14.5146 6.14952 26.0908
1336 3 30.1876 14.7594 27.1222
857 3 19.0476 4.40762 22.0712
317 1 18.8762 4.46009 24.3555
1015 2 20.5878 5.70825 24.9118
1756 3 20.46 6.05331 23.2651
354 3 20.3766 4.69512 22.3846
1818 3 21.5481 6.38551 25.8041
798 3 18.8736 6.17632 25.8214
864 1 18.5097 6.34757 22.1521
1670 2 18.7714 7.52386 26.0879
617 2 28.0515 17.4811 28.0184
212 3 22.082 6.17239 27.0678
1787 1 23.4723 4.63408 26.1671
1944 3 25.2501 5.63926 26.0876
1462 3 24.6987 6.00224 24.8991
866 3 24.9314 6.67739 23.8301
1513 2 25.472 7.75262 22.7258
1112 2 26.1439 4.44118 26.1441
579 1 26.7819 5.64989 24.1106
359 2 28.9344 6.69088 23.1489
883 2 29.7062 5.52281 22.1902
724 3 31.4555 8.15783 25.1572
1883 1 30.3044 6.33595 25.4883
785 3 27.6148 4.82932 25.9479
296 2 28.9115 4.3727 23.6379
1980 3 28.8768 4.95259 24.9207
235 3 27.5188 6.81841 22.4352
1964 2 28.9129 4.65259 26.661
1959 3 27.4009 3.81546 23.2053
993 3 4.16142 11.0367 23.561
615 2 5.84845 8.64501 24.0125
1111 1 4.29997 8.73098 26.6984
203 1 4.7419 11.6049 25.6338
1250 3 5.65609 9.35102 25.4011
1011 1 7.51589 10.8581 23.116
1258 3 7.24282 13.1254 26.1741
1851 3 6.70688 11.9249 26.1892
1791 2 8.09873 13.1663 25.1597
547 3 11.6602 8.7292 25.7451
22 3 11.952 11.9497 23.1809
1285 3 8.96411 9.90782 24.6019
150 3 9.64502 9.45872 23.5698
288 1 13.0773 8.70136 23.5276
1542 1 10.8564 11.3623 24.9119
782 3 9.26458 12.3139 23.9955
649 3 12.3981 11.7777 26.6634
892 2 10.3338 12.9171 22.8915
644 3 15.5283 9.06206 22.1309
1142 3 14.6141 9.82084 24.6189
1923 2 14.8786 9.86125 23.0979
1418 1 14.2364 11.5238 24.0921
669 2 15.8432 11.1528 22.5236
1742 3 15.1758 8.64223 27.263
1280 1 17.6296 12.4511 24.9196
454 2 17.1501 12.0522 22.4143
997 2 16.7997 11.3456 26.8607
1846 1 13.544 9.90942 26.676
1616 3 15.3775 11.9057 26.1451
1590 3 21.3632 11.5682 23.1303
125 3 21.9836 10.0106 24.5151
1956 1 17.8033 9.86622 26.2815
1161 1 20.2188 9.11329 23.2799
725 3 18.7158 10.3101 24.1847
631 3 18.5943 8.75854 24.6414
261 1 20.1184 11.9712 24.9751
465 3 22.44 11.9589 27.2241
493 3 26.8155 10.9451 22.6554
406 1 25.098 10.2661 23.5993
494 3 23.3316 10.1472 24.554
1446 3 23.5964 12.1497 26.2882
613 1 23.087 12.0674 24.3119
1732 3 24.8243 12.2541 22.727
1265 3 31.0479 10.9843 25.5947
1480 2 31.1764 11.1502 23.1442
880 1 27.2873 12.3333 24.2124
1967 1 30.8825 8.71244 23.2389
1726 1 27.6752 8.90089 22.8727
1914 3 30.125 11.0421 24.6554
1380 3 29.0878 9.73737 24.1857
119 3 28.0832 10.9067 27.517
1328 1 30.1568 9.42592 26.0546
412 2 28.2984 12.0241 26.3952
1167 1 6.01508 15.5852 23.357
1814 3 5.2509 16.3892 25.6391
737 3 4.81381 15.0577 25.5914
509 1 8.38543 14.8258 27.0136
1129 2 4.36948 13.7966 25.1786
682 2 7.10096 14.4549 25.0251
1520 2 8.47806 16.3281 25.5477
1362 2 9.15793 16.6512 23.7065
648 1 8.66228 14.2276 22.6046
1784 2 9.60778 15.2355 24.74
315 2 12.3716 12.9453 24.3761
17 1 11.7643 16.5873 23.9148
674 3 11.9743 16.8904 25.9965
1046 1 11.8298 14.5048 25.7176
1733 3 12.5769 14.907 23.9716
1140 1 12.1114 14.1493 21.8473
476 3 14.9249 16.3936 25.7879
1763 2 14.6105 14.1089 21.5262
502 3 13.62 13.8858 24.6195
881 2 16.1387 14.3609 22.5324
12 2 15.1552 13.2422 25.1459
1721 1 14.7383 15.5149 23.2875
1243 3 16.2953 14.1735 25.4084
590 1 18.2767 15.7675 22.9941
918 3 16.1989 17.3011 23.5343
585 2 16.1965 15.5626 25.88
1008 2 16.6809 16.7013 24.6655
1387 3 19.0895 13.525 23.5978
1757 3 19.8655 14.7994 26.1752
1118 2 19.9253 14.9958 24.3866
1516 3 20.6828 17.3256 23.7794
47 2 17.6047 13.8485 23.0664
438 2 21.2648 14.2115 25.1476
450 1 18.9919 16.9549 25.4971
1370 2 23.7156 14.1228 26.1604
1772 3 22.8725 14.3408 24.9845
1053 1 21.4439 16.0901 26.1406
1343 2 20.9494 4.08582 24.7603
1857 2 30.3114 5.45026 18.0452
841 1 24.4831 14.6681 23.7667
786 3 25.1534 12.5467 24.0492
1627 3 23.4036 16.2639 23.0306
1160 2 25.4902 16.6484 22.8741
1035 2 26.7278 15.1255 21.4791
489 1 30.2345 13.0576 25.0458
634 1 26.5547 15.9825 24.6922
136 2 27.8842 13.6538 26.0983
39 3 27.3677 14.5125 22.9221
187 1 31.401 15.9414 24.4868
1805 3 30.6556 14.4351 23.3617
1235 2 28.7049 14.762 23.3456
581 2 29.2162 15.074 25.9189
874 3 4.4729 6.99867 29.5268
1484 1 6.88069 6.03642 30.1242
683 2 4.07523 6.31938 31.033
859 2 4.7776 6.90863 28.1098
1529 3 5.19712 7.35491 30.9146
361 2 7.97558 7.37663 27.8847
518 1 3.29769 12.32 18.3667
957 3 12.4942 6.14495 31.2274
1022 1 9.75322 6.7955 31.3244
645 3 30.1476 3.94225 17.7543
1600 3 7.94693 4.43323 28.9638
553 3 10.5877 3.95999 29.7092
330 2 8.2875 7.8665 29.4646
1925 2 12.7586 5.70192 27.4528
1470 3 11.5363 4.36227 28.9146
771 1 9.60034 5.58495 28.3774
172 3 9.82571 7.38726 29.0568
1421 1 11.7118 7.49484 29.7251
666 3 16.0318 4.64656 28.3486
430 3 15.497 3.56569 29.6833
144 1 13.8021 4.69925 29.676
741 2 14.6791 5.40145 27.7296
1073 3 13.8401 6.48902 28.4902
1561 1 17.3762 5.16564 29.737
1668 2 16.7956 6.91355 31.1455
437 2 22.1316 9.29778 31.3592
1870 1 20.4628 4.78697 26.8149
1808 3 18.3678 6.25235 31.4749
731 3 20.4443 4.53545 29.2844
886 1 21.1832 6.33861 28.9932
1792 3 19.1524 5.48365 28.6463
545 3 21.3421 4.31721 30.1527
362 2 18.3639 6.44474 27.7108
1089 1 17.7866 8.26641 29.679
1508 3 25.0886 4.03543 28.9031
1036 3 24.0992 4.57666 28.0387
889 1 23.8298 6.43125 27.9845
1403 2 22.9603 6.26451 31.1989
1975 2 22.9113 8.1632 30.3057
202 1 25.2726 5.21621 30.7107
1554 1 27.4414 4.89179 28.1081
344 2 26.2778 7.32547 31.6275
507 2 7.73808 3.37318 24.0462
62 3 11.6708 11.369 17.6106
1687 2 9.86356 16.8346 20.4106
780 3 27.0988 5.76839 31.6958
33 2 27.7916 4.74867 30.5594
1550 3 29.7311 5.91174 27.3415
1877 2 30.3906 7.6607 30.0371
994 1 28.7458 7.34539 28.6632
747 2 27.3356 6.50792 30.3972
779 1 30.0076 3.67196 31.2877
1850 3 29.6914 6.43498 30.638
40 3 28.7805 3.57361 29.5421
676 1 31.1001 5.37287 29.0411
1778 2 12.2671 13.1437 31.0848
907 1 6.04487 11.8293 28.4186
1673 3 26.8884 17.3709 22.4942
693 1 6.34438 8.73839 28.9388
1997 2 4.34502 9.93391 28.7056
1104 2 7.77539 10.1105 31.2808
351 3 4.26812 11.1689 29.52
1323 3 7.4922 11.4226 30.1059
1991 2 4.20748 12.6094 30.4899
1301 3 3.57254 11.2869 30.8956
1072 1 31.6164 9.10409 31.6421
1211 2 10.9448 12.5739 27.0479
260 2 10.0217 9.06952 29.556
1094 3 12.8143 9.34993 28.5676
1855 1 10.7818 8.94169 27.4949
1306 3 11.8739 9.3574 31.436
526 3 9.85889 10.4018 28.5023
1050 2 10.2382 10.9833 27.1992
1062 3 10.5279 8.76261 30.9717
482 1 9.30095 12.1658 29.1002
808 2 14.3093 17.3757 26.7486
1219 3 23.4567 3.71905 23.9852
633 2 15.2807 10.2797 27.8211
1834 1 14.6195 8.0467 29.2664
1329 1 13.3203 11.8427 28.6039
1340 3 16.5537 8.49105 27.8602
695 3 14.7613 11.9582 27.5042
311 2 13.018 9.85084 30.1904
1439 3 14.1032 10.9208 30.9098
519 1 16.5695 11.7978 29.5878
388 3 3.74156 17.161 17.5985
89 3 21.7926 12.4331 31.3125
174 3 19.5192 11.2215 26.9039
650 3 5.94015 17.2699 24.7618
1125 2 17.1041 10.0995 30.8432
492 3 19.9942 8.08132 29.6923
411 3 20.3509 7.90279 28.1848
499 3 17.9104 10.4958 29.7414
769 2 19.2561 8.25556 27.5273
1854 1 19.5964 10.4499 28.7152
1272 3 20.6718 12.1676 28.9689
469 2 20.9193 11.8719 27.3155
1066 1 22.2123 10.5745 29.1086
753 2 20.7269 9.3527 30.4059