# LAMMPS data file written by OVITO Basic 3.7.11
2000 atoms
3 atom types
3.4418933634 31.6239949776 xlo xhi
3.4418933634 31.6239949776 ylo yhi
3.4418933634 31.6239949776 zlo zhi

Masses
 
            1   10.81000000             # B
            2   47.86700000             # Ti
            3   12.01100000             # C

Atoms  # atomic

1367 3 5.4395 5.65983 4.73796
1152 1 6.57738 4.96961 6.89547
359 3 5.98168 8.48414 4.11309
872 1 4.5467 7.47233 5.62609
1154 2 7.19803 8.53001 5.08509
1199 3 6.84705 5.71727 4.99936
775 2 7.39781 7.29826 7.80915
657 1 31.0695 5.79211 7.43687
75 3 5.03225 8.82466 7.9898
10 2 4.89975 3.94533 7.87837
461 2 7.73683 6.65661 5.97688
779 2 11.1252 6.8809 6.98148
1563 2 11.7262 5.94807 5.0663
1511 2 9.6183 6.60045 6.18385
897 3 11.1999 6.18873 3.73619
1314 1 9.14315 4.17984 4.40937
1185 2 28.4554 17.4082 7.18162
1520 1 9.71015 8.39287 7.75337
526 2 8.49026 8.10119 6.1448
548 1 10.0307 4.71236 6.99274
145 3 14.8707 6.41033 5.43102
42 3 14.4297 5.28457 4.84654
1418 2 15.6773 6.59865 6.88863
69 2 17.4538 5.82799 6.69418
1054 2 14.6211 3.83979 5.05927
653 1 13.1327 5.7676 6.99732
450 1 17.1238 4.80168 8.66039
1201 3 15.3027 3.69446 8.98535
1674 3 17.1362 5.52396 3.93301
241 2 17.7771 5.19964 5.34976
1855 2 21.6561 5.28737 3.88021
1056 2 22.9225 16.9383 10.83
325 2 20.4072 7.14986 4.68234
1751 2 29.9339 16.7605 16.926
838 1 22.2239 7.83918 4.67771
1443 3 22.0217 4.88251 6.89409
1345 2 20.1129 3.92979 3.96406
1487 1 20.3486 5.0033 5.73058
144 1 16.2395 7.39076 4.82179
1227 1 25.8848 5.47013 5.52461
447 2 23.3386 5.33929 4.00829
1764 2 22.989 4.95684 5.76603
422 2 25.7752 6.11542 7.4016
31 2 24.1262 7.39386 3.65711
464 2 25.7178 7.62445 8.40983
73 3 27.3263 3.97673 5.84343
1275 2 26.1906 7.56208 6.7605
1864 2 25.085 4.60781 7.70223
1647 3 28.4053 14.1622 15.483
1597 1 23.6385 6.39449 7.46943
1851 2 27.6194 5.77292 3.77771
1514 1 27.8052 5.16806 7.24468
1748 1 29.9129 8.31247 3.80613
1940 3 30.469 6.25897 3.77339
1969 2 30.3947 6.61555 5.21017
1451 2 30.6843 7.90265 6.27055
1372 1 28.3532 8.80616 6.90221
1343 3 29.2263 6.34041 6.51864
796 2 28.2805 3.66008 4.59312
168 3 29.8776 3.49237 3.96774
254 3 30.064 3.51915 7.56059
845 2 3.48715 8.94579 6.9541
1046 1 5.77302 10.6613 4.49592
1624 3 4.56232 12.416 4.86797
806 1 6.58814 9.87674 7.33255
772 1 5.95776 13.4052 5.7146
737 3 6.09787 7.91097 8.01476
1884 3 3.81993 11.0685 4.38866
1888 2 7.13734 12.2452 6.9839
955 1 31.0557 11.9498 6.06476
1113 1 9.09262 10.0019 5.15844
681 2 18.9818 3.93853 16.3996
1230 2 9.45835 10.3266 7.4666
1517 3 11.2421 10.1599 4.49401
801 1 11.371 11.3379 8.42483
346 2 11.2251 9.75009 5.93011
1354 1 11.3857 12.3713 5.02469
1025 3 13.0108 10.116 6.99662
1584 2 8.95747 11.7068 6.78131
1433 3 13.6967 11.0646 6.05784
1680 1 12.9728 8.87843 5.41393
1074 2 14.8492 8.45138 3.70623
950 1 15.4312 10.3276 5.45848
368 2 16.8333 11.4016 4.45084
1111 2 16.1909 13.2612 3.80136
112 2 17.2398 9.28709 6.06707
1192 1 13.7998 10.0286 9.16516
649 3 15.2262 11.814 7.21616
86 2 18.4649 10.4781 6.73185
445 2 18.2154 10.2336 5.23316
391 2 19.2191 9.96743 3.76409
1628 3 21.9625 9.36842 5.76094
914 1 19.9731 8.49774 6.35675
247 1 22.7069 11.309 4.96894
1327 1 15.8693 17.0308 7.37881
1739 2 18.6138 11.4685 8.03622
1789 2 23.967 9.13075 4.9247
474 2 23.5658 9.62618 6.33314
1160 1 26.3682 7.73808 3.76284
933 1 25.0214 12.6726 6.95858
757 3 23.6102 10.7251 7.20539
900 1 25.6117 9.63141 7.45512
623 3 3.51652 3.74118 11.1025
932 1 31.5256 3.62175 5.35773
827 3 27.4665 11.3097 3.52503
1486 3 26.5259 8.68282 5.72168
1723 2 31.1276 9.75869 5.09441
123 3 27.7734 12.8428 3.91563
713 3 29.3335 11.0463 6.0089
1540 1 27.4279 11.6289 5.70602
957 2 28.0529 9.62662 4.68165
693 2 29.1835 12.5758 5.90192
961 2 30.6615 10.6916 7.45204
1322 1 29.6624 11.0137 3.86564
152 3 8.14081 3.80437 16.6063
504 2 7.81512 13.6282 6.58147
574 1 4.2033 15.6302 5.00925
1012 3 6.41437 17.2156 5.92343
1991 2 31.489 13.5085 4.64499
1685 2 3.46112 13.896 8.64374
1340 3 12.2361 3.75321 11.5807
501 2 10.1778 13.6606 6.94122
1710 2 11.1527 16.6375 5.77163
1988 2 8.86556 14.1872 7.82447
848 1 9.02852 15.7184 6.1899
969 3 10.4381 16.7833 7.35049
267 2 9.47789 16.2506 3.70179
1268 3 10.3705 17.1289 4.39219
1693 1 8.44366 12.9545 4.80956
1506 3 11.745 13.9501 6.89794
569 2 12.3992 14.4134 5.60627
1155 3 12.8882 14.5895 4.01465
835 1 12.5354 15.9795 7.73921
996 3 14.9167 15.0813 7.00673
509 2 17.444 14.2061 3.70189
1557 2 13.4009 13.1243 3.77249
555 1 14.099 13.2816 6.60125
1601 3 12.5696 16.2885 5.48173
925 1 14.6687 15.7131 5.06126
297 1 6.90735 16.1336 3.8783
334 2 20.3178 12.693 4.12734
562 3 20.6069 12.1221 5.6293
101 2 19.5131 12.1435 6.55757
792 3 18.0244 15.2095 4.47307
1582 2 19.4491 15.3662 5.22403
1407 3 21.1328 15.3977 5.23546
1696 1 16.814 14.2625 6.20732
1654 2 20.9801 16.1806 6.46531
1493 3 24.0954 15.223 17.1044
684 1 17.4765 17.4017 4.63987
885 2 19.4892 16.6969 6.0614
1560 3 26.9754 12.373 7.57199
1378 3 27.2108 13.7729 7.90188
1080 1 22.1046 13.7686 5.73587
242 2 23.9502 13.3418 4.53628
1326 2 23.0558 13.9363 8.04747
1318 3 23.95 14.5416 5.45307
1896 3 25.0246 15.4928 5.35702
895 1 25.2276 15.4675 7.45112
315 2 26.1059 16.3845 4.78604
1746 2 22.6564 15.5179 7.90944
380 2 27.8587 16.3236 5.62938
519 3 31.418 15.7555 7.92215
274 1 28.0233 14.2724 5.63056
1158 2 30.1341 13.8632 5.70022
1957 1 30.2788 16.6365 6.80228
210 2 28.0224 16.0073 3.72254
1332 1 29.0924 13.0493 8.06852
873 2 6.56608 11.4387 17.0298
795 3 30.6499 16.8346 4.65615
113 1 24.7708 3.65565 17.3452
1796 3 4.18426 4.64766 9.09483
906 2 4.7684 7.23401 8.47842
1561 2 6.0461 4.60737 9.02414
660 3 7.11375 5.12754 12.9709
17 2 7.40813 6.2928 12.2551
882 3 6.02597 7.4947 11.7592
1366 1 4.8418 5.84935 10.5986
767 2 31.258 5.05107 12.0829
862 2 9.08142 6.04088 8.47508
1542 3 8.49951 7.21876 9.0407
912 2 11.323 5.82483 8.66726
1388 3 6.63784 13.9869 3.5157
832 2 9.65962 5.24572 10.6548
1725 2 11.6313 7.47815 8.54459
734 3 9.01138 6.37277 11.5999
1500 3 10.9933 5.14917 9.95258
1598 1 11.1913 7.46673 11.3468
91 3 13.0362 7.47595 12.1078
397 2 27.7636 15.3105 15.2462
480 1 17.1956 7.9703 7.67547
140 1 13.5685 7.17344 9.45574
258 3 14.3412 5.41478 10.8807
1808 3 14.8321 4.27506 12.042
893 3 14.946 6.40126 8.31233
692 2 14.682 5.22719 9.30981
988 1 15.9529 7.13588 10.9496
479 3 18.9036 4.83711 9.34366
581 2 21.5847 5.58871 8.0948
1335 1 13.4314 6.67102 3.38728
1116 2 21.2698 7.68125 8.38761
272 2 19.6089 5.11959 10.4675
1202 2 18.0963 6.04899 10.25
699 1 20.1116 7.39339 10.5838
786 2 18.0624 8.17081 9.95527
79 3 21.9438 6.42787 9.2949
1862 1 21.9207 4.78454 10.6052
236 2 25.1818 6.61959 11.9782
1490 1 24.879 5.67818 9.81987
1812 3 23.8937 6.33521 11.2622
1279 3 15.7185 11.4958 17.1571
1715 3 26.2442 8.44411 10.7694
495 3 26.3829 7.2885 11.8312
1110 2 22.4953 7.17945 10.4729
451 1 22.4989 6.71919 12.7699
1787 2 30.1968 16.4941 14.4127
1666 1 29.8183 5.28297 10.6077
71 3 28.0199 4.29888 11.5181
1807 3 28.9852 7.18437 10.0974
138 1 27.8555 6.10484 12.3539
1191 3 29.3225 7.5416 11.4134
1305 3 29.1584 3.86458 8.75951
306 3 6.35731 10.4158 9.1295
370 2 5.36741 8.85246 11.7843
185 2 4.3537 9.1427 13.6006
1722 2 5.73145 9.7598 10.3361
687 2 7.75139 11.2925 11.2894
658 1 7.77084 8.40801 10.8746
709 1 5.30515 11.4831 12.2254
666 1 4.11474 11.1691 9.92266
1265 2 7.76121 12.8548 11.9994
739 2 9.26138 7.74604 12.5412
720 2 12.0071 8.97491 9.49854
1976 2 12.1974 10.228 10.3762
1683 2 12.746 12.2051 10.8165
1427 2 10.3049 9.62136 9.93552
606 3 9.82667 8.83662 11.5911
1296 1 8.31958 10.7421 9.19979
777 1 10.6317 11.2979 11.4792
1355 1 12.9426 10.1665 13.3444
1280 2 10.6377 8.29249 13.4715
1577 2 15.4422 8.41259 8.91536
1242 3 14.0407 7.768 13.016
90 3 16.917 12.0433 11.0129
858 1 15.7653 10.1463 11.3243
1082 3 16.6688 9.02224 9.53186
176 3 14.4301 12.2788 8.30646
674 1 16.4657 11.0511 8.3643
1682 2 17.2948 8.59839 12.5486
1530 1 18.3077 11.328 13.3105
1642 2 19.4889 8.28094 8.47561
1003 2 21.3505 9.99457 10.6147
993 3 18.4007 11.7475 10.9697
442 2 21.138 9.14549 8.97844
1833 1 20.821 12.1186 10.689
1933 1 21.1589 11.1423 7.67494
1222 3 22.0706 8.62576 10.9638
616 1 18.2318 13.1588 9.20446
141 2 23.6562 11.6274 8.64539
1270 1 23.369 10.5376 10.5874
276 3 26.1921 13.4528 11.4953
1720 2 25.765 9.9018 11.2383
1097 2 25.3263 11.6886 11.2522
228 2 25.8082 9.1234 9.62704
677 2 24.4723 11.0061 12.6324
1737 1 27.1959 11.8202 9.78834
1571 3 22.8596 12.8118 9.07049
104 2 28.9733 10.5701 8.41161
828 2 28.1097 7.69302 9.03012
510 1 30.612 9.86754 12.4674
1783 1 30.6201 8.80349 8.9325
214 3 30.038 9.85894 10.401
1687 1 28.1924 8.87738 12.0214
455 2 29.5071 11.3382 9.78371
1079 2 27.2678 9.8031 8.71577
982 1 29.9179 12.3044 11.8317
646 3 7.71983 17.3631 12.4335
769 3 4.26582 15.3781 8.7443
698 2 7.50206 12.957 9.94474
249 1 6.63953 16.7453 8.24727
1357 2 5.33414 13.6224 10.6407
1235 1 5.00179 15.8991 10.5852
110 1 5.62964 12.9277 8.62928
1030 2 7.46506 14.8165 9.34873
1621 1 4.08517 13.8935 13.9263
402 2 3.79839 13.4378 11.7883
49 2 31.4263 12.3922 8.1508
904 2 10.4616 16.1927 9.41764
749 2 9.09682 17.301 7.74678
571 1 9.53699 14.1592 10.231
938 2 8.64559 15.563 8.65228
1857 1 8.81751 16.5493 10.6098
901 3 11.3724 13.1754 10.4543
926 2 10.7253 16.8757 12.6848
1095 1 11.9511 15.4186 10.7666
861 1 12.8422 13.5261 9.03055
204 2 14.9698 15.0222 8.66914
763 3 13.6587 15.3491 9.50319
560 1 15.4198 13.2498 10.6622
1755 1 14.6759 16.4365 10.8753
1470 1 17.0715 15.1548 9.36784
1927 2 17.0497 16.0799 11.4283
546 3 17.9532 14.7102 11.0523
1501 3 14.8582 14.5908 12.4527
467 2 19.6757 13.6451 7.58122
1282 2 21.2666 17.0188 10.9043
1731 3 18.6112 14.6477 7.70421
572 3 20.3932 13.3261 8.87797
1662 1 19.2652 16.6438 8.02413
1870 2 21.8395 13.6991 9.63567
1712 1 19.9715 15.1005 9.99889
1424 2 22.3545 15.0189 10.5902
1681 2 20.012 16.6173 11.8017
1805 3 7.61202 10.7944 3.59302
1878 1 24.5601 13.5833 10.3246
635 2 26.3678 15.079 10.5358
491 2 23.7787 15.9939 9.93736
1953 3 25.1373 15.3486 9.6442
1652 1 25.1249 16.5083 11.6923
732 1 26.2954 14.6442 13.265
26 3 23.7218 14.2325 12.9639
1261 1 22.0068 15.9214 12.8062
1408 3 26.4352 15.7686 15.8501
266 3 27.2228 15.0841 7.87898
636 1 28.9253 15.0591 13.2936
1044 2 28.0007 13.8947 11.1493
531 1 27.5336 16.6858 9.03368
232 2 27.5486 15.8241 11.7179
538 3 30.6918 13.1717 10.1833
1482 1 26.0009 15.1175 17.3728
655 3 27.1424 16.0987 6.90714
989 1 29.908 15.3622 10.5077
1168 3 4.89416 14.3397 12.0824
405 1 6.11592 3.86871 11.6734
533 3 31.3168 12.6462 15.7661
407 1 4.28142 6.38801 16.1758
1047 1 6.58457 4.70593 15.264
1292 3 4.55454 4.97277 14.3839
1176 1 5.01683 6.89538 13.3225
431 2 7.19612 7.33368 15.2058
611 1 6.86294 6.90807 17.4066
1502 3 8.17042 7.92293 16.268
8 3 5.57567 5.09435 17.2434
1393 3 5.05094 8.23551 17.5649
916 2 9.67802 3.80808 13.3575
381 2 8.00439 4.02053 13.3304
1993 2 12.5519 5.62393 15.0606
203 2 11.1976 4.92759 15.033
527 1 9.93969 6.85415 14.5577
522 2 11.6511 6.57159 16.5184
1684 2 8.91877 5.22373 16.2183
879 2 12.4965 8.3347 16.2593
230 1 12.8946 4.07897 16.4853
386 1 29.1975 12.4683 14.9257
1827 2 15.1031 5.11582 13.6411
1303 2 18.0408 6.1267 15.1754
813 1 15.5822 4.7036 15.7354
1174 3 13.7396 4.89368 14.5957
1297 2 16.5392 6.28019 13.6628
7 3 31.6808 15.8829 14.6452
1240 1 14.0538 7.29068 15.0924
1172 1 17.1328 3.6941 13.3963
917 2 20.4449 5.48061 13.0533
373 1 22.6267 14.2667 14.982
1895 2 17.7205 4.49372 15.366
1766 2 19.5232 6.12096 16.3876
1149 2 20.2222 6.26646 14.7961
24 2 21.2647 4.94387 15.0748
1749 1 21.1166 4.71044 17.4346
1892 1 18.6018 6.5828 12.4918
427 3 20.1991 8.70517 16.0426
135 2 23.9927 13.8574 16.8349
670 3 22.5081 4.59186 14.0501
477 2 11.2271 3.62768 12.9643
669 1 24.3104 4.39028 12.4935
341 2 24.8332 4.03639 14.8736
1365 2 26.2617 7.89072 13.2939
787 3 27.2418 7.29508 14.4964
1298 3 23.6747 5.34947 14.4467
656 2 25.3273 5.42786 16.1994
292 3 25.5733 6.97729 16.5092
529 1 26.9493 4.62207 14.8318
1304 2 26.8761 6.4066 15.7287
682 1 22.8621 6.84711 15.2872
139 1 18.4597 15.286 13.2386
667 1 30.8781 5.6796 14.0416
411 1 28.9957 7.05016 16.0775
1077 3 28.9623 3.97566 14.3502
1754 3 30.7502 8.51192 14.8059
344 2 29.454 8.066 13.6953
632 3 29.0817 5.06298 15.443
869 3 3.77222 7.95204 14.2326
1444 1 27.5889 5.24854 17.3297
856 2 31.2815 8.33451 16.4362
1431 1 5.55037 8.53609 15.7859
414 2 7.29938 11.7691 15.4985
1150 3 20.5269 14.7627 14.2529
1328 1 4.62985 11.2411 16.2855
279 3 4.48983 10.2571 14.3585
1700 1 8.23124 8.95986 14.0945
664 2 7.29415 12.7757 13.8876
761 3 5.42868 11.5887 14.6381
226 2 10.1223 9.02668 14.9369
211 2 9.25276 9.12654 16.3237
1528 3 11.334 12.0045 13.7063
891 1 9.7973 11.4929 14.602
189 3 4.5511 4.88054 12.8941
443 2 11.8715 8.35306 14.7933
1360 2 8.68897 11.9656 16.5275
943 1 16.874 8.0763 14.8668
1415 2 13.4025 9.47122 15.6577
1342 2 16.5553 10.1545 17.4139
1556 2 15.3417 8.64841 17.1971
1351 2 16.579 9.92473 13.633
88 2 16.3869 11.4364 14.2316
47 2 12.7985 11.0371 15.9864
1231 2 15.5295 7.86933 12.8672
1924 2 16.6725 11.3082 16.0325
1913 1 15.3648 13.8105 14.131
583 3 20.6966 11.862 12.6852
151 3 17.9965 8.11371 11.4348
124 3 21.5146 9.40157 14.3687
1643 1 20.2828 9.09356 12.7489
1709 2 19.4163 13.53 14.9222
65 1 18.5924 10.1689 16.0294
1316 2 19.5052 12.431 16.3921
1899 1 21.1794 11.4048 15.0367
147 3 22.3165 8.16486 14.0281
1033 3 20.9685 9.78931 15.7023
1098 2 14.7868 16.8246 14.5282
939 2 24.0138 10.5192 17.2382
1363 1 23.8735 9.92543 14.5656
537 1 26.7029 8.85964 15.8321
704 2 23.7737 12.0971 16.8157
515 2 24.6126 7.80067 14.1419
1902 1 22.7984 12.2415 13.1897
1668 1 26.0413 12.2055 14.5881
98 3 23.5195 11.6477 15.322
364 2 25.0982 12.6729 12.6068
1767 2 25.4769 9.49385 12.906
169 3 24.1303 9.06892 17.1826
284 3 27.1752 10.7232 15.8742
1747 2 13.6236 4.12058 10.8799
663 1 29.3724 9.56961 16.1035
1928 2 28.3549 10.8256 13.1201
263 2 30.6416 11.6336 17.1812
1546 2 27.3527 10.5848 14.2764
557 2 24.0487 15.5449 13.4258
850 1 3.66933 16.5949 12.7586
952 2 5.96351 16.2119 17.1781
894 1 6.89639 14.0344 16.2946
1973 1 7.02386 14.968 11.9967
1994 2 4.84394 16.2104 15.3109
979 2 6.8915 16.3316 14.8834
1509 3 4.6956 17.1314 16.7193
565 3 8.78628 12.794 13.2378
1197 1 3.99944 14.8496 16.8412
1276 2 7.79503 16.681 16.1274
1190 3 10.5359 16.6196 14.2216
339 2 9.78955 13.5156 17.4123
1406 1 8.40333 15.5941 13.863
1034 2 9.84468 13.6316 14.0572
507 2 9.68076 14.2508 15.7697
70 1 11.8449 13.1294 15.5307
237 1 11.7532 13.6761 12.6472
1320 2 10.8557 15.0665 14.5611
1552 2 10.4645 14.9203 16.9647
1854 2 25.1092 15.5055 15.0625
564 2 16.6192 14.7932 12.3906
1254 1 13.002 16.4647 16.8229
417 2 13.8151 15.3528 13.1448
1252 3 12.5253 15.0557 14.6183
1831 2 13.21 16.2813 14.5087
489 2 5.10503 17.3589 6.451
413 2 16.457 14.9114 16.4077
330 2 17.6322 14.534 15.4367
679 3 15.119 15.2569 17.2836
991 1 14.0348 13.2959 17.1302
705 2 20.424 13.079 13.6409
1716 2 16.7355 16.6272 13.0684
273 1 19.3923 16.1773 16.478
1402 2 17.9613 13.565 13.8789
575 3 23.0231 16.893 7.29578
1177 3 21.1336 15.8834 14.9589
990 1 16.4644 16.7889 16.926
377 1 6.31685 3.76763 4.01009
1861 2 19.8512 17.0311 10.2628
770 3 29.3809 16.998 10.0343
1570 2 22.8759 17.4624 17.0497
342 3 9.26434 10.524 17.1958
22 3 16.1259 17.2041 14.2432
482 2 7.64932 17.5078 6.50909
253 2 16.6847 17.2936 9.94488
910 1 8.57929 3.84032 8.53254
280 3 14.4783 4.49993 17.4823
675 3 22.4115 7.05479 17.2435
825 2 8.46473 17.3838 17.4531
1626 2 19.6261 8.32411 3.56385
221 3 5.09902 4.2439 20.7591
1757 1 5.32598 5.75793 19.4265
1901 1 3.45914 4.3322 18.0973
545 3 4.55196 7.07101 20.7671
1759 3 7.5901 6.97848 19.4159
1106 1 10.4791 4.76858 19.2546
898 2 8.17555 5.77402 19.0289
1348 3 12.3055 6.47755 23.2044
1860 2 9.26037 5.76701 17.5962
1383 3 28.96 16.0722 30.3593
1962 1 10.6391 6.01487 22.0804
1006 3 10.5315 6.5663 17.6977
409 3 12.647 4.18738 21.2164
602 1 11.9115 7.68671 18.6938
1371 3 23.444 16.2046 17.785
290 2 11.1401 3.49628 21.1571
553 1 13.8838 4.98386 19.4013
1768 2 15.0605 6.48897 20.5882
1822 2 16.3487 3.92537 18.5076
1600 2 15.6793 4.95236 20.8865
1453 3 13.7645 6.9966 18.9462
758 1 16.1011 6.13722 18.0721
77 2 16.5439 7.37191 20.4047
453 2 14.1625 8.17044 18.1025
1122 2 17.6032 4.60032 17.5522
673 3 15.8413 3.89291 22.2572
1165 3 19.9031 3.6572 18.9797
1634 1 18.9648 7.61335 18.2862
1370 3 17.482 7.23485 19.3329
1656 2 21.5767 4.13959 19.7303
1729 1 20.128 6.69748 21.8558
528 3 17.475 17.4947 25.4364
1785 3 20.9955 5.39787 20.311
984 1 19.0906 5.45921 19.7943
1596 1 24.191 6.17588 18.0966
469 3 25.4172 7.22484 20.0952
964 2 23.1249 8.29962 17.7529
181 2 24.2203 4.13431 19.8483
289 1 22.89 5.38698 20.9229
544 3 25.4216 4.77753 18.788
1324 2 22.8479 3.55738 18.8815
1579 1 27.0871 5.88051 19.6622
1565 3 26.8915 4.11457 20.7829
1614 1 29.93 4.83833 20.2413
1189 1 30.9922 7.49373 18.716
1446 2 29.5881 7.01331 20.6414
723 3 29.4082 5.95799 18.7094
1830 3 30.1288 10.5397 18.035
1220 3 28.7321 7.08267 18.2968
1640 2 27.1113 5.19452 21.7613
1918 2 28.3171 6.38418 21.5888
1368 3 5.81445 9.5643 20.8215
976 1 3.67802 9.86275 21.6749
107 2 6.31022 10.9715 20.297
44 2 5.12425 8.37775 20.3853
389 3 7.71756 13.0235 21.0516
513 2 4.12571 9.2472 19.687
949 1 7.68682 12.6314 19.0396
1392 3 4.31693 10.7753 19.2085
201 2 5.43448 11.8683 19.3916
1459 1 6.00412 9.32513 18.9046
1127 1 9.01768 8.66884 18.3406
530 3 9.67246 8.56003 20.7581
486 2 12.0431 9.9745 19.6988
1707 3 10.8028 8.78094 20.0337
208 1 24.2409 4.00116 27.9606
227 2 12.5098 12.5948 18.5587
756 2 11.8295 12.1337 21.602
1983 2 11.7638 11.9467 19.8782
1259 2 8.23561 11.0689 17.9292
651 3 19.2734 5.35584 17.66
857 1 13.4645 10.1231 17.9063
834 1 13.896 11.9237 20.1777
1780 3 13.6662 9.74952 20.4223
868 3 14.2583 9.2726 21.4902
1460 1 16.3243 9.06842 22.3346
434 2 17.793 11.5101 20.0367
1733 2 18.079 11.8681 22.098
317 2 18.3709 7.85074 20.2192
394 1 17.4794 11.8993 17.8631
432 1 21.5475 8.99032 19.9468
1146 3 19.212 11.1789 19.0285
947 3 19.8131 8.05724 20.0766
878 1 19.4066 9.83032 21.2845
1387 3 20.533 11.2622 19.8104
615 1 21.4066 12.1898 18.0426
1338 1 24.5877 9.44295 19.1799
1434 1 21.8966 11.5786 21.0479
1753 3 26.493 8.37316 20.3907
948 1 25.4151 11.5662 22.2217
396 2 26.8333 9.74352 20.8941
1837 2 24.0083 9.89611 22.1642
505 2 26.9344 11.1226 20.1648
1889 1 31.1662 12.9118 19.2589
200 1 28.977 8.80363 21.5557
219 1 28.8116 12.5976 20.8876
1678 2 29.928 10.9979 22.4113
915 1 28.2865 9.14328 18.7246
1673 3 29.7775 10.6795 20.8758
1449 2 30.2892 10.1183 19.4252
1909 1 26.5585 11.7507 17.898
55 1 5.53718 12.5542 22.1181
293 3 5.96733 15.0918 18.084
585 2 5.44913 13.5241 18.2232
725 3 3.54156 13.8439 21.6843
29 2 7.50264 14.8177 21.921
634 1 4.61274 16.0849 21.352
460 1 7.09792 17.1774 22.042
1811 1 8.05696 15.5122 19.2335
1013 2 3.5052 9.94763 17.6249
680 2 5.95661 16.6149 18.7625
154 2 25.7253 3.64063 27.1389
299 3 8.58574 15.6227 21.5829
748 1 9.75455 13.8624 22.1378
570 3 11.6696 14.993 21.3336
1350 2 11.4595 13.6614 20.383
1588 3 9.96792 14.8527 18.57
1476 1 10.1432 16.9927 21.1914
1273 2 11.7804 13.6372 22.5724
558 2 10.4068 13.0506 19.2416
53 1 12.7818 15.8431 19.8809
116 3 14.7693 16.0582 18.2025
117 2 17.1589 12.8327 20.7442
871 3 14.3029 14.2136 20.0507
372 2 15.9629 13.8784 20.4471
1076 2 15.1458 16.3199 19.4847
500 2 16.1718 15.8076 20.8049
1233 1 13.7556 14.8561 22.0127
1211 3 29.3787 13.8246 28.9489
182 1 17.824 14.6098 21.919
340 2 17.6001 14.2143 19.4965
19 1 19.3492 13.2402 19.8745
1742 3 18.2653 14.4787 17.8726
1105 1 21.4001 15.3083 20.413
1818 3 19.9259 14.5794 21.7319
1352 2 18.7134 15.4487 19.5009
1590 3 20.7035 16.4672 18.7667
1587 2 19.2306 17.1552 18.9454
956 3 19.6925 16.2174 21.3693
1639 2 20.4476 16.0062 22.5504
212 2 22.609 17.1525 21.974
972 1 24.0782 13.7042 19.0808
521 3 26.7115 12.6346 20.1672
1285 3 23.7222 12.7323 20.8148
652 2 21.9012 16.898 18.3082
1007 3 23.1442 13.8687 21.2909
1838 2 24.6866 17.0291 22.1894
1567 1 25.5966 14.8521 21.1151
351 1 23.5515 17.311 19.706
1604 2 27.5459 15.2094 30.1999
1691 3 22.6797 3.86137 22.7491
1009 2 26.3578 17.4323 19.6587
1358 3 26.1541 17.2241 21.2008
1219 3 26.1622 13.5589 19.3944
16 3 26.9363 15.9463 19.0667
1119 2 30.6275 14.868 21.4315
867 3 27.2653 14.6181 19.0512
313 2 28.931 14.6764 21.8476
733 1 28.8793 16.5286 18.9743
14 3 30.5543 15.74 17.7608
177 3 30.8395 16.4161 21.0585
1872 3 31.281 7.66902 21.9454
392 1 7.53933 6.99496 21.4461
1468 1 3.75541 5.51009 21.9486
1695 1 3.60343 17.1543 18.9998
1001 1 6.77124 5.09333 24.2581
751 2 4.85904 6.91006 24.3138
1885 2 4.87733 3.79801 23.9009
1163 3 5.36999 6.48732 22.8146
314 3 6.43464 7.31353 23.3207
1964 3 4.15921 7.92877 25.5124
335 1 10.9356 8.34542 30.7836
1083 3 8.28268 4.44553 23.228
543 3 9.59762 4.21485 22.7972
195 1 9.46198 6.06588 24.9339
1714 2 12.4335 4.58267 25.236
654 2 10.2603 7.96542 23.3148
319 2 11.6368 5.48628 24.1283
1891 3 9.22973 8.07239 22.221
924 1 14.2216 5.25953 22.7302
1623 3 17.2113 5.85417 24.9223
1942 2 14.9462 6.04502 26.935
296 3 16.0055 5.16743 25.7659
93 1 14.4601 3.47861 25.607
1057 2 13.2946 5.63244 25.6481
831 1 17.8376 4.56113 22.7697
754 1 15.2354 6.96897 24.8421
1093 1 10.9732 11.1291 18.0656
1004 3 20.276 3.84313 26.941
621 3 28.4688 9.21298 30.9855
568 2 18.587 7.33518 25.1425
1882 3 19.7804 4.90402 22.8876
1210 2 18.7446 5.93945 25.8593
1166 2 20.1274 7.45851 23.9698
1676 2 20.2741 6.74219 25.4005
1293 2 18.2725 8.08491 23.4538
1389 3 19.3611 4.89157 26.6375
506 2 21.9761 7.12434 25.5295
1792 3 23.9803 7.22227 19.8185
1475 1 23.8391 5.81167 25.5249
1394 3 23.1592 8.0136 20.4261
1263 3 24.8151 4.93027 23.5099
27 3 22.8225 7.30632 26.8929
1216 3 25.7741 7.34407 25.4887
735 3 26.5878 7.52322 26.5523
958 3 25.6011 5.59416 22.7178
747 2 25.7009 5.94248 24.1856
1435 2 19.5535 11.117 17.5489
1752 1 31.1441 4.30026 26.0016
785 2 29.9401 6.91088 22.1245
1599 3 31.3926 3.60687 23.5102
1334 1 17.6615 3.7016 25.5102
946 1 28.5286 5.37426 23.4701
1813 2 3.63096 6.23547 25.9723
1234 2 4.42021 11.6773 23.7895
1195 3 7.0666 12.278 24.6411
410 2 4.89168 10.0232 25.4043
1799 3 5.76585 12.2885 23.9011
1788 2 3.84236 9.81786 24.1431
717 3 7.38437 10.9352 25.2764
1871 1 6.65291 12.8716 26.5869
1744 2 7.44401 9.78805 26.2563
1843 1 8.00048 7.84132 24.4533
630 1 12.191 8.53399 22.7074
1828 2 8.85773 9.91082 24.8091
1670 2 10.4301 9.86526 23.8922
1217 2 11.5822 8.34807 24.7522
1391 1 13.3043 12.1474 23.0352
1769 2 10.9673 11.3042 23.0094
1073 2 12.2946 9.06603 26.1435
1886 1 9.53453 11.9421 24.5357
1200 3 15.3542 9.62793 24.7077
1203 3 17.3213 10.6462 22.4675
905 2 13.1129 8.72486 24.5801
1379 3 14.6113 8.73908 24.1331
1554 2 14.7063 11.0134 24.6183
1039 2 14.9788 12.5732 24.9197
937 3 21.0565 9.84766 22.0205
1492 2 18.5157 7.94799 21.8175
1329 1 18.5599 10.8301 24.1717
711 2 19.5307 9.75071 26.2225
599 1 20.4975 9.37575 23.7963
727 2 21.0028 12.5503 25.269
896 3 21.3352 11.389 24.35
1956 3 17.8354 11.0619 26.3397
1698 1 22.1619 11.3941 27.0585
1410 2 17.9402 9.56461 25.7043
223 2 22.4852 10.3023 24.0057
1221 2 17.8356 12.592 26.6252
166 1 23.1393 7.96073 23.4856
269 3 23.3129 9.86931 25.3123
416 1 26.3622 7.58094 22.2907
1974 2 22.5251 9.68659 22.5507
1239 2 26.4438 10.5244 23.8697
633 2 25.3644 11.6163 24.3763
1094 3 25.1089 9.30768 23.266
1701 1 25.2469 9.62722 25.9582
229 2 22.5181 9.38537 26.644
1979 3 26.7863 11.3712 26.7867
281 2 31.2985 9.17066 25.8977
1170 1 26.4501 13.299 25.1774
52 1 30.5268 8.00757 23.9015
54 1 28.1052 7.64184 25.4858
619 2 31.2851 11.1849 23.3945
6 3 29.9236 9.44222 25.5417
448 1 31.0883 11.4428 25.5241
1816 2 29.6884 9.92629 27.0109
1488 3 28.3412 7.82274 23.4056
81 1 28.4825 10.4247 24.4867
400 2 29.3791 12.5383 24.6911
1396 3 7.86278 13.3375 22.511
163 2 6.35323 16.754 24.9417
542 1 7.74736 15.0204 24.2388
1981 2 4.06123 15.6412 23.656
690 3 5.42408 16.1635 23.4043
264 1 5.1153 15.6928 26.4701
1823 2 30.8209 16.8009 22.9739
997 3 3.48156 13.7075 25.8992
1825 1 7.72386 17.1014 26.4355
586 2 8.88295 16.3322 23.0777
1738 3 8.48375 14.2237 25.9306
1129 3 9.38963 16.6989 24.5782
1842 2 9.60619 15.2306 26.363
1397 1 10.8071 15.1093 23.7222
781 2 10.6371 13.4771 25.8399
1419 3 10.5989 12.6866 26.9713
759 3 5.59767 14.8365 31.3591
385 1 15.8507 12.5539 22.8614
902 2 15.4462 13.7659 26.4428
404 2 17.1202 14.7356 24.0121
357 2 15.9985 14.0424 24.7383
622 2 14.2594 13.8788 24.3287
1161 3 13.3648 15.1825 24.1416
1950 2 14.9333 16.7811 26.9777
620 2 12.2577 13.7216 25.0184
1800 2 14.8502 15.1036 26.6548
860 1 17.2675 15.0338 26.1284
1359 2 16.1939 17.2359 22.0248
148 1 14.0622 16.8626 24.8945
773 1 17.8456 16.8457 23.5103
992 2 18.0389 13.1749 23.3654
492 3 18.6743 13.791 24.5222
1765 1 20.1179 12.9894 23.1607
1665 3 21.6495 14.0739 24.5133
1136 1 19.9457 14.8957 25.9404
363 3 21.9871 13.6182 25.9892
1139 2 30.0778 17.5253 20.3636
1130 1 22.89 13.3983 23.198
591 2 23.2983 15.3717 21.6372
590 2 25.3076 13.6942 23.5345
418 2 24.3034 15.084 23.5917
1104 2 14.9334 17.09 21.1351
1732 1 22.2761 15.9837 24.4863
197 2 24.3979 16.7583 23.915
180 3 23.5117 16.2852 26.1514
1633 1 25.4953 15.5593 25.6039
1405 2 28.2358 13.3815 24.2158
367 1 30.7759 13.6541 23.4318
921 2 27.9158 14.5439 23.0541
1594 2 3.66248 14.8504 24.9531
1071 2 30.7071 14.8489 26.4611
962 3 27.102 14.5987 26.7141
892 1 27.6612 16.5006 22.0061
231 3 26.8476 17.2591 25.2064
1109 3 28.1357 16.9987 25.156
379 1 28.7009 13.1585 26.8498
843 1 30.138 16.6181 25.2958
683 1 6.42456 6.62463 31.024
549 3 6.12091 3.45838 27.1343
797 2 7.01219 4.46197 30.0016
1925 2 6.62616 6.01846 28.727
283 2 5.1601 6.82864 28.3358
1602 3 4.65663 7.18351 29.8282
995 1 4.35741 4.63038 29.1694
1893 3 7.55701 7.21948 29.3374
1483 2 3.72835 5.91541 27.4098
1919 3 10.2889 3.35661 28.4382
1971 2 12.5045 5.34227 27.282
1226 1 7.92342 6.76276 27.2819
511 3 11.3467 6.37102 27.2269
589 2 9.78929 4.92042 28.7655
1745 3 10.1357 6.37976 28.0346
1306 1 11.5101 4.29736 30.6496
1966 3 12.7035 8.11572 30.0599
1832 1 9.30204 6.36156 30.1655
935 2 16.0681 4.67653 29.8009
934 1 15.588 7.38006 28.5465
1794 2 13.941 5.35665 28.1139
648 3 24.8276 3.93308 25.9899
1021 2 12.821 5.22794 29.3178
406 2 13.9978 8.86768 30.1392
1535 2 16.7865 6.4718 30.937
1117 1 12.908 7.40837 27.8536
1141 2 14.5726 5.19231 30.2457
1631 1 16.8362 4.76113 27.9169
755 2 21.9332 4.4551 27.8678
1775 3 22.0872 11.27 30.8195
305 3 17.5679 6.26766 29.2613
85 1 18.935 6.23949 31.4901
1473 1 19.9717 5.90972 28.6693
1173 3 20.9518 7.74426 28.7378
350 2 20.682 4.87465 30.5516
647 3 21.8983 4.29554 29.5141
877 2 18.6027 7.58271 28.7798
535 1 23.4782 3.65482 30.3813
1826 2 24.9852 5.58253 31.6081
1519 1 22.4362 6.45289 29.7494
1841 2 23.9944 8.24524 27.5593
1045 2 24.9362 7.17402 27.042
1238 1 24.806 6.36395 29.0189
1903 2 26.0011 4.89866 30.4846
1416 2 26.864 5.44185 28.928
1300 2 27.213 6.39676 30.2514
1717 1 26.6198 5.47879 26.4526
1290 2 30.4876 4.20123 29.335
67 1 29.2365 4.95238 30.5252
1020 3 29.1815 4.66404 28.5162
1186 3 28.0675 5.05674 27.9304
703 1 31.2251 7.37793 28.948
986 3 4.8657 11.0119 26.9775
929 1 5.66981 9.52602 27.8714
1622 2 7.43231 8.77738 28.7912
859 1 4.35237 8.91999 31.0128
452 2 6.49511 10.0328 30.688
1856 2 5.32652 11.9567 28.5242
907 3 5.16806 11.0043 29.9571
889 1 6.90354 12.2288 30.4411
1806 3 7.7334 9.46099 27.5562
1463 2 4.12269 12.4912 26.7044
584 3 25.779 16.1311 29.8956
399 2 8.28096 10.9437 27.6178
613 2 9.35924 11.7997 26.7767
1301 3 12.7607 9.41299 30.7596
1829 1 10.1151 8.79094 27.4278
1548 2 11.2168 10.368 28.566
102 2 11.9619 10.6552 31.1642
1541 2 10.4983 11.0861 29.6183
1164 2 8.64518 9.81246 31.1363
360 2 10.0447 10.877 31.1106
156 2 8.4182 12.374 28.5385
1015 2 8.25042 8.55051 30.227
1425 3 12.0269 9.93201 27.3551
78 2 10.7689 12.4587 31.1534
1763 2 10.9516 12.6942 28.5447
740 2 9.73336 12.4403 29.6499
1935 2 12.4459 12.2551 30.983
300 3 15.3506 7.34554 30.8516
811 1 14.3035 10.1661 26.9576
940 2 14.6603 13.1433 27.8041
471 2 14.8707 10.4804 28.9388
1382 3 14.5854 9.16281 28.6832
39 3 14.526 11.9174 28.4797
89 2 16.7032 10.9512 29.5497
1179 3 16.5639 8.41217 31.1507
554 1 14.1924 10.9659 30.9598
1461 2 16.4732 11.678 31.0255
28 3 20.5776 13.6389 31.0167
362 1 18.1397 8.1662 27.0942
1941 2 19.6592 8.02861 30.1189
265 2 17.9966 8.65907 30.6623
1960 3 21.2413 9.03682 27.7076
355 3 20.9749 9.39248 26.229
729 2 17.557 9.46013 28.8995
321 2 17.2296 10.1666 27.3461
1875 3 19.0085 12.3716 28.8222
1686 2 17.7105 11.6021 28.3131
1667 1 19.7518 10.2302 28.9848
1608 2 24.5435 9.03916 31.5922
1413 1 22.7456 9.56046 29.0945
308 2 22.1881 12.4747 30.0286
354 1 25.5326 11.453 28.4721
494 2 25.1574 8.67439 28.7218
323 2 23.384 12.0505 28.859
239 3 26.3285 12.4845 29.9358
520 3 24.8187 9.69945 30.1135
1229 1 24.4502 11.472 31.1465
1260 2 30.9565 13.0593 29.5587
640 2 30.0604 9.42754 30.0755
45 2 26.1723 9.69863 29.396
1347 2 27.0082 10.9657 30.0677
863 3 30.3801 12.1147 30.5778
1308 3 27.9269 11.54 27.8627
784 1 31.1157 10.7568 28.3202
1417 2 29.7634 9.09663 28.7226
689 1 27.7448 9.62264 27.7281
3 1 28.3322 12.5387 29.9004
1452 2 4.28298 17.183 27.8543
768 3 7.35009 13.3206 28.3186
830 1 4.50753 15.6427 29.4425
1934 2 4.04931 12.8443 28.6722
609 2 30.9601 3.62503 21.8574
502 2 5.92917 14.0096 28.4978
133 1 4.08938 13.0217 31.098
783 2 5.77681 17.4979 27.9464