# LAMMPS data file written by OVITO Basic 3.7.11
2000 atoms
3 atom types
0.0631664544 28.1189351598 xlo xhi
0.0631664544 28.1189351598 ylo yhi
0.0631664544 28.1189351598 zlo zhi

Masses
 
            1   10.81000000             # B
            2   47.86700000             # Ti
            3   12.01100000             # C

Atoms  # atomic

1903 2 0.209968 3.33482 0.149596
1851 2 1.49084 2.64489 1.2073
1969 2 3.52378 0.483421 2.92186
153 3 2.10708 1.44108 2.07711
136 3 0.681283 1.80906 4.2586
932 1 2.36724 3.04364 3.59974
970 2 3.61558 2.73024 0.96817
1691 3 1.46515 0.771471 4.4114
1036 2 4.7019 1.65182 2.15803
920 2 0.762121 1.77915 0.134819
1752 1 2.66356 0.787824 0.269859
218 3 7.04033 3.06266 1.4723
1052 2 5.8198 4.32916 1.56863
1520 1 8.49299 2.15214 2.59468
696 1 6.58152 1.30239 0.700094
1417 2 6.29908 1.54641 3.90066
206 1 8.39293 4.6049 0.113411
1740 1 4.89715 3.5967 4.13168
1343 3 7.21705 2.77453 4.38267
1290 2 5.03754 3.61342 0.412623
988 1 7.9372 4.63864 3.34798
193 2 8.61093 0.243917 4.21606
1035 3 9.75775 3.43525 3.47056
1938 3 9.92365 0.504747 1.90985
1306 1 11.8365 3.62463 0.803869
548 1 11.7722 2.67479 4.18297
1545 2 13.8929 4.16903 1.42522
603 2 12.851 2.30519 2.57392
300 3 14.0504 3.34448 0.05865
766 2 13.2993 0.902343 3.08413
75 3 9.93087 0.655735 3.34629
1848 2 12.4002 1.36153 1.17861
85 1 14.894 1.9998 2.27309
1353 2 16.6031 3.13369 2.36821
1436 1 17.8027 1.27535 1.61498
877 2 15.2971 4.24471 2.81637
1966 3 17.9546 3.60049 1.26374
1711 3 18.6769 3.77437 4.48276
498 2 15.6496 0.650492 3.94715
1905 1 16.7602 3.31337 4.60002
1978 2 18.4027 2.14761 3.5931
1277 1 16.2697 4.12596 0.304157
1271 2 19.2431 4.28035 3.05161
350 2 22.0648 4.76516 3.52926
154 2 22.2118 3.07714 3.11237
796 2 22.4013 2.05746 1.71562
1045 2 20.8363 4.37258 2.5408
864 3 22.5801 0.127772 3.97595
1608 2 23.3411 0.976037 0.457135
958 3 22.2895 3.16609 0.496511
1890 1 20.6048 1.4877 3.92064
358 1 20.3244 2.24349 1.10453
1142 3 19.9628 0.38237 2.41101
1706 3 19.9818 0.0756597 1.02514
67 1 24.2016 1.30321 2.99824
1287 3 26.2352 1.6161 3.76388
1773 1 27.5056 1.67174 2.17066
1160 1 23.9602 4.22018 4.84183
1153 3 25.1383 0.910898 0.819625
1004 3 26.0014 0.4139 2.8449
1558 2 26.4586 1.0309 0.362601
1845 3 25.3161 2.02116 4.82756
1378 3 27.5498 4.64288 0.365868
54 1 3.77538 5.59028 1.49723
1020 3 2.48306 5.3084 3.67172
1717 1 0.936079 4.99189 2.1795
220 3 2.11667 5.79525 0.263505
1322 1 2.02566 7.88799 1.38994
72 3 3.43731 6.2169 3.93671
1884 3 0.42296 6.64725 4.64378
640 2 1.97438 6.72263 4.38694
784 1 5.23252 8.0818 1.48937
644 2 6.12304 5.88888 1.01825
859 1 7.93725 7.89309 2.82503
863 3 6.90907 6.4839 1.93836
862 2 5.67897 5.52129 2.96418
1199 3 6.62341 5.49056 4.51939
1965 3 10.6994 4.67763 3.07622
1744 2 12.388 5.71922 0.812233
42 3 11.0043 5.62586 0.206277
480 1 12.8768 4.83244 3.15353
450 1 10.6804 6.99068 1.98684
265 2 13.5319 7.34316 3.44441
797 2 11.5717 8.68345 0.603899
1622 2 9.52832 8.60064 0.925143
1433 3 12.1772 7.92994 3.95751
720 2 10.9573 9.10093 2.09502
1154 2 10.5184 8.51177 4.05299
746 2 18.5761 4.87511 0.610729
1960 3 14.384 7.34329 2.13975
866 2 15.7525 5.61766 4.06743
184 1 17.4073 5.47916 2.22704
1054 2 14.7963 6.71055 0.757671
1725 2 15.2608 5.98929 2.31141
935 2 18.0288 8.12275 2.45728
543 3 17.78 6.23113 0.163201
924 1 17.4744 8.09566 0.262813
1027 1 15.7606 8.16269 3.6816
1486 3 18.3942 7.90299 3.79107
957 2 23.0873 5.89594 2.11226
1229 1 21.7247 5.06977 0.155855
1311 2 22.2192 8.04454 0.554806
166 1 27.9512 8.07617 3.33341
174 2 26.3685 5.17982 1.16213
855 3 28.076 7.35587 1.67955
354 1 24.1561 7.56261 1.2003
1789 2 24.003 6.21432 3.65774
181 2 24.6838 5.55869 1.03956
229 2 26.3258 6.60599 3.40705
242 2 27.2879 5.61944 4.12354
1640 2 26.7446 6.8102 1.81146
447 2 25.704 5.48789 4.34469
1185 2 2.36044 9.57038 4.00772
1186 3 1.68544 10.6489 1.80113
1911 2 2.89811 10.3138 2.47703
907 3 4.78803 10.2804 2.29695
795 3 4.30617 12.9731 2.05664
689 1 3.53917 12.0735 3.88481
1135 1 2.22468 12.375 0.88069
1748 1 4.66474 11.5882 0.76379
347 1 0.396186 10.9934 3.7485
484 2 0.20103 13.8164 2.23137
1158 2 7.44279 9.4674 1.16869
1164 2 6.09304 10.4267 1.65261
1723 2 5.51392 9.92002 3.5038
772 1 6.78709 13.1917 4.69591
133 1 7.76907 11.5263 1.40689
1805 3 9.33012 11.3165 3.3605
889 3 8.77882 12.6309 3.69386
346 2 8.62819 10.4089 4.24437
1542 3 5.58929 11.0329 4.82913
902 2 7.63907 13.654 2.9591
1196 1 12.8162 9.35714 2.93531
1741 1 11.1546 11.9796 3.18984
1554 2 13.2584 11.6529 1.92915
511 3 12.7546 13.0361 2.40866
195 1 13.418 11.5407 4.11756
811 1 11.0084 11.0052 0.369831
1735 2 9.58195 13.7763 1.46766
1785 3 18.1136 10.6125 0.3104
27 3 14.7282 10.2367 0.238857
905 2 14.4648 10.6956 1.98781
526 2 14.31 12.9788 1.99323
1517 3 15.4071 10.2695 3.11912
1818 3 17.4366 12.925 2.41059
1136 1 16.0284 11.686 0.591094
1173 3 18.2447 12.4095 3.4546
1141 2 17.6932 10.0706 1.70411
1667 1 16.613 11.4722 4.33055
1878 1 19.131 13.9429 4.388
1870 2 19.2157 11.0101 1.90022
1535 2 22.4695 10.1703 0.902722
1631 1 19.6686 10.0457 3.55416
1210 2 21.5803 11.5692 0.687401
754 1 19.7139 13.0814 1.33923
1841 2 20.9794 10.1197 1.59227
141 2 22.0604 12.7619 1.75931
1211 3 23.1585 12.8877 2.90323
1080 1 22.4534 9.67474 3.66065
699 1 21.7475 14.0315 4.19595
494 2 22.7718 11.9857 4.134
1285 3 24.0213 9.62959 1.41484
1337 1 27.3283 10.8415 0.599237
635 2 23.9705 10.5413 4.4492
1665 3 26.2121 12.9002 0.748687
1109 3 26.9406 10.3322 2.71187
1782 1 24.9175 11.4088 2.32667
323 2 26.5691 13.1658 2.07894
1658 2 27.4341 14.0436 3.71227
1347 2 24.845 9.77826 0.286693
1059 2 2.08311 1.60666 8.65115
827 3 3.74813 1.89035 5.04428
676 2 1.66756 3.02281 7.91101
1722 2 3.45406 3.29529 5.79671
84 3 0.188113 2.12116 8.0143
1372 1 1.39711 2.09976 6.24608
1087 3 4.52492 4.15554 6.3653
1540 1 3.55458 4.2772 8.19623
517 2 1.24368 4.38256 7.2818
1569 3 0.179585 0.978923 7.0227
1776 1 7.19918 0.262477 5.88598
378 2 5.1957 1.30011 5.04488
1984 1 6.56316 2.94727 7.42889
1817 3 8.19361 3.69965 8.62912
377 1 9.30382 2.65218 5.80705
286 3 5.69341 1.10331 7.73648
906 2 5.81087 0.49354 9.33114
734 3 9.13445 3.13203 7.82547
435 2 5.30213 0.127532 6.44998
893 3 13.6059 3.63726 5.08501
1122 2 9.97242 0.537034 4.94375
238 3 13.042 2.63665 7.55616
95 2 12.1826 1.36305 6.79723
1863 2 13.3242 2.3764 5.76297
527 1 13.9682 1.52735 9.06712
1892 1 11.8247 3.93415 8.56372
466 2 11.4494 0.544966 5.61111
318 2 14.5341 4.74576 5.19144
1346 1 14.2029 4.17546 7.22487
328 3 18.6131 1.05621 6.29822
1300 2 17.7257 3.7291 7.59004
1231 2 15.9019 3.6594 7.93233
1923 2 18.4501 0.791315 4.80696
1949 2 16.8414 4.63329 8.87654
268 3 17.2423 1.56248 6.85256
1345 2 21.5664 4.16615 5.49095
1016 1 19.4149 3.0651 6.40164
942 3 20.7889 4.69443 6.51681
1031 2 21.5811 3.04343 7.22023
757 3 22.0562 2.8042 4.88303
474 2 23.0481 2.91681 7.89529
535 1 22.6829 0.633375 8.74747
1110 2 21.8406 4.5549 8.92763
1819 1 23.0926 1.11725 5.68782
73 3 28.1459 4.08202 6.4051
393 1 27.1989 3.32945 4.51454
1339 2 25.5583 1.9246 6.25032
168 3 26.0469 3.75506 8.27625
1826 2 24.7084 3.20737 8.12818
1028 1 26.3971 1.54543 7.99146
31 2 27.0596 3.28758 7.11935
302 1 27.4325 0.176764 5.40473
1734 2 23.6467 4.51733 7.25759
726 3 24.796 0.609486 7.30496
1624 3 2.68606 8.41742 5.33608
1783 1 0.57532 6.71798 6.75038
1807 3 2.13929 5.66422 7.61498
995 1 3.97953 5.94159 6.1228
1251 3 4.21396 9.12405 7.97594
1332 2 1.95576 6.39228 8.95933
1930 3 6.93677 6.6479 5.09472
737 3 5.4341 7.32683 6.07684
332 1 6.91278 6.00655 7.27199
461 2 5.5907 8.29758 7.29954
1747 2 8.47799 6.61627 4.82611
1940 3 8.83821 7.11779 8.30154
801 1 6.82218 8.69798 5.30883
1030 2 6.77959 9.21802 8.20185
1796 3 6.22032 5.80529 9.21753
258 3 9.6103 7.57622 4.85837
910 1 10.9344 6.17495 4.85841
1500 3 11.2689 5.60115 7.22305
1680 1 10.1741 8.69606 6.98122
775 2 10.1527 5.8824 8.27643
241 2 12.4215 7.88597 5.42806
442 2 12.1749 7.63882 7.11051
1941 2 13.0639 9.07906 6.59997
912 2 12.7947 5.93665 7.02718
370 2 12.0187 8.3905 8.94032
1532 1 18.5888 6.06369 4.90013
321 2 17.8743 8.82094 4.92047
1057 2 16.4409 6.17279 5.49507
69 2 15.264 5.62844 8.32085
305 3 16.475 7.9628 5.72866
479 3 15.4151 7.10102 8.42207
144 1 14.4544 7.07411 6.2215
1530 1 17.6903 7.36322 7.8714
140 1 14.848 9.26085 8.65844
326 2 18.1301 5.32605 6.90272
1015 2 15.0035 9.42094 6.01509
520 3 22.4644 8.13727 5.03193
648 3 21.1026 8.9963 4.83922
1519 1 21.5865 6.799 6.53554
647 3 19.6802 5.56804 6.50494
651 3 19.6529 7.26277 7.91066
1443 3 21.6699 6.07502 8.69701
1402 2 21.1792 7.35009 8.63951
838 1 19.5578 5.29361 8.766
247 1 24.2806 7.46822 5.6368
1514 1 27.8352 5.2504 9.12042
621 3 24.526 5.64574 7.49469
900 1 26.2185 5.53856 6.47254
1079 2 26.5513 8.87586 6.80506
123 3 26.6593 7.17819 7.5361
49 2 27.6965 8.31457 7.86275
562 3 24.9069 9.39478 6.74447
1467 1 23.7483 8.4591 7.98065
455 2 25.2054 6.75481 8.64991
101 2 1.72532 13.7436 4.89164
777 1 4.148 9.97398 6.07775
955 1 1.18505 9.4138 5.87091
1451 2 2.12512 12.3761 7.60961
1357 2 2.82345 11.969 6.25614
1040 3 1.06407 10.851 7.31504
1700 1 1.81335 10.3564 9.01391
1584 2 4.62546 12.3362 7.14085
313 2 4.23088 12.3194 8.88482
1758 2 2.52325 12.8056 9.19902
961 2 4.47932 12.4286 5.62105
664 2 3.92624 10.5743 8.41646
873 2 7.76391 9.87126 7.3918
1427 2 8.24651 10.454 5.87953
806 1 6.67276 11.7017 6.74861
538 3 8.60413 13.4519 6.41677
940 2 7.1349 13.9964 7.33832
1280 2 8.9412 10.939 7.4337
443 2 11.6599 10.0276 5.28004
1155 3 11.4782 13.4217 5.12602
1230 2 11.9613 10.6649 6.71155
1582 2 12.0462 12.7783 6.3422
1794 2 14.1109 10.446 6.90827
1235 1 9.9525 12.0121 5.76726
78 2 12.564 13.0151 7.96579
1601 3 11.0558 9.43267 9.17364
554 1 12.3937 10.854 8.66213
1367 3 11.4475 13.6259 9.01904
580 2 10.054 10.5258 8.40862
1682 2 16.8553 9.74787 8.36831
1833 1 17.3689 11.7782 8.04288
1418 2 15.0864 11.6117 5.8528
102 2 15.3137 13.3731 5.09352
1875 3 16.1478 13.1848 6.37991
1354 1 14.5349 12.0317 8.61608
1318 3 18.2359 10.4565 5.55643
1651 3 17.1864 13.8157 8.42751
112 2 18.666 9.88536 8.38436
90 3 16.0562 10.4663 9.47305
914 1 19.8804 9.46983 6.47641
391 2 19.8544 11.515 5.72485
1953 3 20.5763 12.6735 5.30784
1696 1 22.1518 11.1418 8.23202
1739 2 19.64 13.1483 6.60229
895 1 26.1496 10.0093 4.75385
1058 2 27.9853 12.6197 5.15285
440 2 26.5338 12.0741 5.02717
1044 2 24.6413 11.0825 7.40142
1288 1 26.6936 10.2999 9.34927
334 2 23.8783 10.3747 6.0876
308 2 27.7312 11.2496 5.60918
1933 1 24.2145 12.5317 5.77094
1896 3 26.6862 12.4075 9.36837
1593 1 26.9555 12.612 7.24321
1795 3 1.86491 0.915531 9.98922
115 3 1.62157 3.95443 10.8312
1152 1 4.15059 1.41217 11.3817
1864 2 1.11634 2.01669 13.3537
228 2 1.43754 3.34261 12.031
352 2 2.00256 1.01037 11.4831
966 1 0.364937 2.52564 10.293
779 2 7.92524 2.58928 9.66418
337 3 7.78449 3.75454 12.3826
203 2 5.93738 2.10439 10.0458
43 2 5.94622 3.20035 12.3753
446 1 7.71228 1.6798 12.7031
879 2 8.59814 3.64685 11.2298
1139 2 6.32385 0.456406 11.2563
1384 3 5.59286 3.56378 10.4992
1067 3 11.8305 0.381711 12.9355
1808 3 9.91908 1.97835 11.5777
927 2 10.3641 0.381359 12.5059
1993 2 10.4935 2.1053 10.2846
1874 3 9.71544 1.94355 13.1923
17 2 12.1287 2.71567 10.1386
1291 2 13.3111 4.05083 10.4258
739 2 12.5998 2.82136 11.6542
408 1 11.8144 0.308746 10.7259
1860 2 12.2606 4.68084 12.1884
87 1 18.032 1.88561 13.7103
1827 2 14.9892 3.46421 9.77336
758 1 14.1764 0.953611 12.0135
1616 1 14.5196 3.83839 12.1202
1201 3 15.263 1.95561 10.5878
1995 2 18.2091 0.752098 9.72522
1172 1 17.0245 2.54964 10.8382
771 2 15.8764 3.1013 13.4583
760 3 18.4531 1.45035 11.4218
1064 2 17.5813 0.362564 12.107
681 2 16.2588 4.75334 10.3587
1116 2 17.9488 4.5166 10.7351
77 2 15.2384 4.4863 14.0196
1556 2 19.9436 1.37035 11.9784
1487 1 20.5964 1.8396 9.90975
1839 2 21.1135 1.95664 13.2086
24 2 22.0022 3.43471 13.7686
1764 2 22.4495 2.29144 11.8628
1442 2 22.6574 0.854423 10.5417
597 1 21.4821 4.0973 11.5266
97 3 19.4487 3.84603 10.5951
320 3 19.4198 4.64859 11.7471
840 3 28.1104 1.20561 13.6165
1561 2 23.8025 0.844213 11.8632
670 3 26.435 4.60077 13.8729
2000 3 26.6113 3.04049 11.6303
150 3 23.9888 2.02064 10.0828
21 1 25.0564 3.48996 10.4599
1967 2 27.0864 1.69762 12.1477
539 3 27.4974 0.0514845 12.4565
405 1 3.11841 7.49288 13.8121
728 2 1.47582 8.6248 13.2681
787 3 1.81858 5.24375 10.2856
1645 1 2.82662 5.26814 12.2742
1737 1 0.544117 7.56101 10.9367
1546 2 3.03244 7.5926 11.3655
499 3 2.5053 8.19922 10.0477
47 2 4.59174 8.66608 12.9358
1602 3 5.67754 4.8682 9.91213
1314 1 8.47875 5.57095 9.92147
374 2 5.12736 6.44573 13.5055
402 2 4.82946 7.40985 11.8485
683 1 4.93465 8.20034 9.59485
658 1 7.24353 7.88743 12.4909
1220 3 8.85053 8.75041 10.9061
845 2 7.80654 7.62986 9.69632
279 3 8.58233 6.30076 13.5246
1191 3 5.7022 9.23114 11.9285
908 1 6.99179 5.02205 13.4815
891 1 9.83221 5.11951 13.0482
1342 2 11.823 8.79043 11.8635
1296 1 10.4711 7.21634 10.4394
1529 3 11.0931 6.17919 12.0985
453 2 12.4472 7.07836 11.5377
237 1 13.5493 6.42522 9.45998
445 2 13.9461 8.02585 10.9379
943 1 12.5468 6.51917 13.6077
901 3 13.6223 9.33612 10.0618
1303 2 18.353 7.1655 13.6895
1642 2 18.305 7.59479 9.75533
917 2 14.7007 5.68395 11.2202
1749 1 16.2249 7.38299 10.4391
649 3 14.1763 7.04189 11.9703
674 1 17.235 5.1959 12.9654
1351 2 17.6472 8.73715 13.1441
583 3 19.0818 8.12183 10.7463
23 2 19.3086 9.0264 12.0899
236 2 21.7135 5.32244 13.4122
1937 1 20.2547 6.92924 11.9789
1177 3 20.8564 9.26035 12.3198
1771 3 22.4411 5.90395 11.7316
1597 1 23.122 8.90056 11.2776
1008 3 21.7556 8.01998 10.0134
464 2 22.4715 6.88227 12.8826
1227 1 23.2857 6.28808 9.96331
982 3 28.0026 8.59839 9.34446
828 2 25.9736 6.51068 10.0538
882 3 28.0911 8.22351 13.9213
1394 3 24.9203 9.20311 13.0578
1222 3 27.3158 7.71088 12.7044
1636 1 27.4188 5.11881 12.1015
272 2 24.015 7.94377 13.0661
151 3 25.1833 5.89416 11.1745
833 1 25.4906 8.01667 11.4962
1490 1 24.1934 5.01697 12.7026
32 2 1.18524 13.9509 10.304
1143 2 1.12215 11.1704 11.5592
104 2 1.58412 12.2849 10.4925
1270 1 0.699317 13.7443 12.5586
1787 2 1.83953 10.7675 12.815
306 3 3.11804 11.4377 12.8605
1168 3 4.19725 11.8844 12.4409
510 1 3.81357 9.91731 11.2872
149 1 8.43104 12.8703 9.4041
667 1 7.43788 10.0547 10.6359
1973 1 5.3673 12.9152 11.1265
386 1 6.27869 12.9436 13.4351
288 1 9.13407 14.0565 11.7662
709 1 8.9288 11.2281 13.1918
698 2 7.54759 12.1944 11.6157
1769 2 11.7019 10.0729 13.7891
176 3 13.3571 12.9118 11.6663
1552 2 11.3451 10.0904 10.9123
431 2 9.98257 9.57649 11.5001
1259 2 10.1631 13.8528 9.66997
606 3 10.1528 12.7735 13.5504
1360 2 10.154 10.9226 10.2532
280 3 12.9053 9.76942 11.1573
560 1 11.8659 11.7491 12.311
1192 1 14.0858 9.55091 13.5507
1731 3 14.0138 13.2818 10.3692
1095 1 14.7655 12.4135 13.7254
616 1 16.0899 13.6981 10.1116
1461 2 17.077 13.3071 12.8837
325 2 18.0217 12.4876 11.0438
1506 3 15.7137 10.8811 12.601
373 1 17.3033 9.78362 11.009
204 2 16.5991 12.1999 11.9085
335 1 14.8325 11.1083 10.8992
1683 2 16.713 11.4271 13.751
1082 3 16.6787 9.66666 13.9969
1902 1 20.8054 13.2228 9.97769
1767 2 22.4932 13.9341 13.5706
544 3 21.4808 10.3117 12.5364
1596 1 20.1944 10.523 10.3416
276 3 22.0403 11.2765 9.98468
1282 2 18.9781 13.686 11.8693
1202 2 22.3888 9.67301 9.48885
22 3 19.382 12.3456 10.8571
786 2 20.6592 13.4854 13.2709
1668 1 22.2853 12.1661 12.061
364 2 23.5255 10.6852 10.2724
467 2 24.4651 13.9342 11.1383
1003 2 25.9632 10.1603 12.7613
422 2 25.0128 10.3758 14.1329
274 1 24.2276 12.8927 9.46838
1363 1 25.5377 12.3071 12.6645
1407 3 24.8001 10.1609 10.7743
1326 2 27.5484 11.7475 10.7129
1431 1 27.8943 10.711 14.1278
677 2 26.6988 10.5871 11.306
26 3 23.7033 13.1171 13.4335
1571 3 26.916 12.8174 13.7326
1091 1 2.83621 0.595795 16.3522
1844 2 0.661438 3.78493 16.8732
1194 3 3.10866 2.26106 17.0845
196 2 2.94319 3.42913 18.1276
1481 2 0.775814 0.766786 15.0648
1216 3 0.281701 2.42467 16.3314
1790 1 2.546 3.3952 15.1939
525 1 4.96554 2.49026 17.6718
1891 3 6.62277 3.7797 15.6705
1106 1 8.1132 3.42838 17.0926
1429 2 7.87596 1.09018 16.2929
1689 1 8.77909 2.86829 14.8344
1951 1 5.77152 1.64635 14.4846
1591 2 7.6969 0.442955 14.7659
1399 2 7.30133 1.79809 18.7682
63 3 9.8534 1.57285 17.5549
173 2 11.5635 3.61769 16.2475
317 2 10.6116 4.56236 15.5138
1240 1 13.5621 4.35324 15.3217
815 2 13.0138 2.85743 17.1299
38 2 10.6285 1.95924 16.3626
1598 1 12.0169 2.64147 13.9623
1174 3 13.7595 1.77147 14.9325
1415 2 14.2825 1.77338 16.3361
1072 2 14.5045 1.94767 18.0297
813 1 16.7922 1.58869 17.0174
1149 2 17.9777 3.04072 15.9289
251 2 16.9714 3.85278 17.0265
1527 2 16.6371 2.98997 15.0633
858 1 15.1731 3.85969 17.6985
1471 1 15.3127 0.910799 14.5046
1324 2 17.2054 0.12381 15.2365
1248 2 18.857 1.1961 16.1777
1797 3 18.9661 1.32309 17.8655
1131 1 18.8538 3.71538 17.6936
1968 3 21.1881 3.8904 16.8479
1534 2 22.1913 4.23903 15.755
99 2 21.5438 1.1911 18.336
155 1 20.9333 2.24589 15.6658
595 1 23.1036 2.45105 17.4155
1103 2 21.9628 0.509012 15.0701
715 3 23.2089 0.298526 16.1332
1005 3 20.0881 0.869673 18.2712
592 1 28.0213 0.526494 17.5757
669 1 25.5653 0.93983 17.0372
1727 3 26.8435 2.37599 17.1167
747 2 24.4897 4.6029 18.1914
138 1 26.4172 4.43852 16.3854
1187 2 24.2056 3.94583 15.2773
645 2 24.714 2.45715 15.7896
1366 1 26.7595 2.86519 14.8506
1611 3 25.2271 1.28015 14.5506
540 1 23.6413 1.68269 14.182
152 3 1.79632 4.71679 17.0617
1754 3 1.47326 7.33656 16.2069
303 2 2.04492 5.91917 15.7425
1872 3 2.10068 7.90937 17.3276
611 1 4.60557 5.10213 15.254
1756 1 0.173201 8.59501 17.7423
545 3 4.13252 9.39859 16.39
1305 3 2.55782 5.40623 14.3292
1127 1 4.98149 8.43602 17.8032
189 3 9.19313 5.94813 17.2618
1292 3 9.01573 4.98374 18.0806
407 1 8.13749 7.13311 15.6225
1368 3 7.17976 8.30617 17.1523
596 2 5.24575 7.21115 14.9562
869 3 6.07563 7.62896 16.1956
299 3 8.06603 8.72954 14.2818
1176 1 8.32768 7.22311 18.4515
1093 1 10.1212 8.07998 14.1253
485 1 11.3256 5.11216 17.7294
1670 2 10.7466 6.30662 15.2871
394 1 11.144 7.83202 17.1127
1242 3 12.826 6.52426 17.017
1279 3 12.1658 7.37474 15.4685
434 2 13.7569 5.66859 17.7541
1983 2 12.1062 8.81586 14.8831
704 2 17.8953 5.33924 16.1048
878 1 16.111 6.36276 17.664
1492 2 15.1521 5.70865 15.8027
798 3 17.4492 5.79479 14.7437
1470 1 16.049 7.66714 14.6205
1150 3 15.902 9.212 17.0974
1692 2 18.0705 6.92319 17.1579
984 1 18.2824 9.24807 16.7657
1570 2 18.384 6.97824 15.3998
868 3 14.5435 6.08207 14.3513
1862 1 20.1273 5.79374 15.8007
1974 2 21.0919 6.88515 14.2452
1370 3 20.7833 8.76935 16.6423
899 3 19.7199 7.75428 16.7621
712 1 21.928 5.19514 18.311
1115 2 21.0254 7.08277 17.05
1165 3 22.498 6.99564 17.4675
537 1 19.9565 8.47631 14.4536
1687 1 22.7513 7.95238 15.1697
1298 3 25.2767 5.328 14.3942
1666 1 26.0037 8.15097 14.4037
623 3 27.1523 6.25154 16.5098
1086 3 27.2403 5.54271 17.7811
529 1 24.0961 6.1501 16.161
1077 3 24.6863 8.04212 16.625
1262 1 25.8905 7.00783 18.0187
1751 2 27.6867 8.73639 15.4548
1766 2 24.5452 9.29521 15.9259
1720 2 1.07765 9.57058 15.9224
477 2 2.75691 9.66104 16.0924
513 2 4.30659 10.8114 16.7145
1889 1 3.31531 12.8015 16.7142
1823 2 1.03112 13.8889 18.3078
1495 2 4.41581 13.0244 14.6944
392 1 2.18216 10.3086 18.4615
1560 3 -0.0857475 12.938 14.4399
263 2 3.09254 13.7496 14.9001
1509 3 1.96798 12.4235 18.464
309 2 1.47341 13.6193 15.2421
1013 2 4.85971 11.9021 18.1376
979 2 5.31862 12.1355 16.4217
725 3 5.62059 11.7511 15.0149
1621 1 7.75608 12.435 15.9883
1468 1 6.6667 9.79069 15.4951
585 2 8.81433 9.86988 15.0194
949 1 8.25631 10.0325 17.8222
1119 2 7.44489 13.9993 17.6676
226 2 10.4843 10.1227 15.0067
952 2 10.1162 11.6722 17.0412
1459 1 11.8978 11.3955 15.7475
1528 3 10.9737 10.4017 17.4659
107 2 11.0229 12.9346 17.7192
1924 2 12.713 12.3302 17.7062
1146 3 13.6605 11.4904 17.0242
1320 2 10.2544 12.9968 15.9639
1265 2 11.1326 13.3443 14.5433
1976 2 12.8741 13.0701 14.5671
515 2 10.1803 9.43509 18.3921
1244 2 14.592 11.4156 15.828
1822 2 15.5762 9.62985 15.6987
1780 3 15.3412 12.933 16.2594
182 1 16.2025 11.3237 17.2893
939 2 17.7822 10.5303 14.5738
871 3 14.9122 13.6112 17.4869
972 1 18.4993 13.1334 18.1888
88 2 19.2489 10.6477 15.3852
831 1 20.8424 11.2941 16.9188
1830 3 21.3958 9.89074 15.9999
1219 3 20.9656 13.2079 17.5833
98 3 22.5927 13.3348 17.479
915 1 23.2394 10.8717 17.1906
1488 3 21.7803 9.93704 18.6731
682 1 22.421 10.775 14.6534
139 1 18.8496 12.7344 14.4826
1812 3 20.7347 12.1991 14.2016
503 1 24.7314 13.1649 15.32
1328 1 28.2015 12.1754 16.7723
71 3 26.629 11.9372 18.1733
976 1 24.8796 13.1424 18.3899
495 3 25.036 11.2052 17.8487
1502 3 3.7029 4.4926 19.1379
1757 1 2.6221 1.87581 19.8905
883 3 0.665888 3.09176 20.3795
481 3 1.1718 0.780329 19.3652
1961 3 1.8553 1.54668 21.8494
1944 2 1.16044 4.02465 21.6399
530 3 3.71202 4.1703 22.694
381 2 1.25336 2.77932 22.7929
1440 2 0.684745 1.09623 22.8242
1253 1 2.93598 0.187636 22.2732
1047 1 5.09877 3.57484 20.8003
1019 2 4.90305 1.36588 19.9286
103 2 5.53533 4.59267 18.9794
1684 2 6.27944 2.08065 21.2254
1549 2 7.78851 2.54422 20.33
342 3 9.22487 3.00856 19.8289
44 2 7.03864 3.93324 19.6936
1469 1 6.90648 2.73503 23.2231
1350 2 9.25584 2.56467 21.3989
1885 2 9.38661 4.5684 19.5305
558 2 9.32349 1.95084 23.3609
1107 2 6.10539 0.433148 19.1604
35 1 13.2424 0.0536514 21.6213
1690 3 12.0207 0.239403 19.4743
1118 1 9.59284 0.950765 19.6048
1361 2 11.7033 1.36321 20.2412
130 1 11.2447 3.91002 23.2281
553 1 13.4408 2.95176 20.1574
1453 3 13.334 3.3134 22.1035
1919 3 13.0601 2.0931 22.2962
1178 2 11.2292 2.89686 20.7414
1707 3 11.5487 4.50876 20.6311
1214 2 12.116 1.27948 23.0726
486 2 12.7645 4.71548 21.4865
1523 2 16.0016 0.499372 20.4085
409 3 15.1945 4.201 20.2177
290 2 14.6084 4.44845 21.4793
1989 1 17.3661 3.95547 20.5855
1708 3 17.15 1.25813 20.95
199 1 18.8981 1.54413 22.435
1472 1 15.4072 1.68142 22.7541
675 3 18.7061 4.26128 19.6184
700 1 21.1129 0.869024 20.5502
1225 2 21.5711 2.38733 22.2007
1762 3 21.7242 0.872484 22.8697
1641 3 22.1782 2.14091 19.3617
248 1 20.7047 3.83225 20.5615
1882 3 20.5702 3.15081 22.9784
1218 2 19.669 4.27828 22.6085
741 1 23.4466 2.98179 20.6073
1992 2 24.8761 2.01319 19.0431
1777 1 26.2863 3.64866 19.2574
1702 2 27.9749 1.51633 19.996
1269 2 23.6256 2.89216 22.6622
1579 1 27.0971 2.53442 21.7049
1791 2 26.0496 0.98376 19.1037
1445 2 25.7278 0.670111 22.6938
190 2 24.9255 1.33357 20.7615
1583 3 24.363 1.43071 22.221
1663 1 1.64517 4.86264 19.2968
1446 2 2.6849 4.86346 21.7468
344 2 4.66088 5.47508 22.9574
1788 2 2.58587 7.97759 18.7523
1678 2 1.11135 7.40736 19.7007
1421 2 1.84108 8.4872 20.6405
400 2 3.39103 9.00957 19.8329
1189 1 3.83764 6.35151 20.2698
208 1 1.46922 6.63418 21.5878
1599 3 4.52203 6.83753 22.1162
448 1 1.99815 9.36533 22.9107
660 3 6.38061 5.1085 20.0583
614 1 6.95761 6.24254 21.6602
444 1 5.22848 8.57178 22.3461
339 2 7.8646 8.53322 20.8109
8 3 9.40412 6.11823 20.2459
1195 3 8.76422 7.52332 20.6034
314 3 7.42451 8.32127 22.5702
751 2 6.71165 9.39383 19.7441
931 3 8.43225 8.64166 23.453
1962 1 13.2389 7.76025 23.0333
602 1 11.0519 6.21953 21.6399
1600 2 14.1196 8.67603 20.8158
654 2 11.6645 8.36415 20.2261
413 2 10.4989 6.29154 19.577
679 3 12.7966 7.63664 20.9669
1396 3 14.6125 5.364 18.7234
753 3 17.2374 5.02136 22.5967
857 1 14.5528 6.36053 20.5748
1886 1 15.8703 9.26198 18.9752
673 3 17.7062 8.11756 20.7933
319 2 15.6735 7.89109 21.7476
1729 1 18.414 6.29558 21.5186
1745 3 15.0172 6.92276 22.8024
1634 3 16.3914 7.76038 20.4309
1899 2 22.7526 7.05004 19.1281
1868 1 22.2565 4.78552 22.7522
1183 2 19.7622 5.53739 19.7197
459 2 21.0692 6.51984 19.9165
451 1 20.0137 8.56165 19.1043
977 2 20.1988 5.62298 21.6194
1475 1 20.8467 7.71205 22.7332
292 3 23.0449 7.56988 22.1923
524 2 22.5365 8.68343 18.9724
1389 3 22.3831 8.83255 21.7901
1130 1 23.4737 9.27962 23.2391
1444 1 27.6825 8.84996 20.8531
785 2 27.509 7.80472 23.1353
514 2 24.0124 6.40527 21.7723
656 2 24.2388 6.46609 19.8472
211 2 27.4678 6.62018 20.1985
341 2 25.9581 8.93176 19.4303
1792 3 24.5144 4.87727 19.9837
1304 2 24.0912 8.25853 19.5202
541 1 25.65 4.93427 21.6153
37 3 27.3343 5.591 19.1798
283 2 26.8253 6.86301 22.022
1161 3 3.32254 11.8393 18.8598
997 3 3.55703 9.45382 21.3509
1799 3 0.323643 10.6082 19.723
264 1 2.21093 12.1384 20.7187
1273 2 4.1393 10.6292 22.1903
584 3 1.25012 10.0333 20.6675
1463 2 3.58014 13.6345 21.6492
1759 3 4.58063 12.1685 21.7552
1449 2 1.33771 12.575 23.1584
1226 1 9.26246 9.98669 20.306
1163 3 7.28992 10.6426 19.4892
634 1 4.99598 10.6597 20.2593
53 1 6.86214 12.1056 21.0865
1234 2 5.44872 11.0329 22.6712
360 2 9.03599 11.4293 22.1407
389 3 7.8204 13.7587 20.6253
70 1 12.5414 9.81532 18.9116
1379 3 11.2293 9.87201 21.0013
1348 3 12.5041 9.74965 21.9437
507 2 10.4266 11.1044 18.7304
1843 1 10.4025 9.48596 23.0243
201 2 10.4565 13.4647 19.1412
613 2 10.1093 12.5256 23.007
1217 2 9.83077 12.0652 19.8504
894 1 11.4868 11.7991 21.3112
1203 3 12.9193 13.7038 22.7219
1829 1 13.9981 10.5405 22.8266
834 1 16.8094 13.6826 21.1039
1768 2 18.2496 9.604 20.1988
756 2 14.138 14.0236 23.4472
1200 3 16.6772 12.6056 22.967
1387 3 17.1213 12.1719 19.6303
135 2 18.5411 11.0821 18.9192
227 2 14.326 10.6525 20.0462
1316 2 16.6815 10.8466 19.9726
1221 2 16.024 11.4611 23.3214
1765 1 18.0797 11.5056 21.8031
506 2 21.1757 10.8048 19.9791
1709 2 20.2643 13.1758 19.5719
701 2 22.6503 9.84134 20.1882
416 1 22.3707 12.9262 19.6472
947 3 19.8531 11.3256 19.681
1329 1 21.1059 11.3133 22.4249
147 3 22.397 12.8506 22.8434
1009 2 23.2674 14.0163 22.5416
1604 2 27.4397 9.70642 22.9821
620 2 27.3379 11.7883 22.7683
505 2 26.1378 10.4886 22.3869
1957 1 27.9164 13.1508 20.1478
1170 1 24.9041 10.7447 19.9298
964 2 27.0188 10.3724 19.0188
19 1 25.66 12.6827 22.0736
1094 3 24.3382 12.6455 20.2866
1979 3 24.5486 10.7039 22.0932
1257 3 0.139495 0.311296 24.0252
1120 1 1.1305 0.92177 25.7296
235 2 2.22279 2.75097 25.1235
512 1 2.16177 3.59081 27.477
469 3 2.92035 1.87388 26.0501
1089 2 0.314614 3.15296 24.3491
1925 2 3.78405 2.15599 24.687
379 1 2.14442 4.60434 23.5303
224 2 5.34106 1.77688 24.3202
722 3 8.15408 1.01335 23.755
94 2 5.26566 3.55681 24.5018
1138 1 7.13354 1.58818 25.625
1043 2 8.45857 2.44855 27.0332
1610 3 7.9848 0.924898 27.3677
717 3 5.05677 4.06943 26.8004
52 1 6.86527 4.58639 25.8911
851 1 10.2052 1.33012 28.215
1959 2 12.1253 1.3085 27.2156
369 2 11.5135 1.85595 25.7424
1893 3 10.7679 2.08727 24.2329
33 1 10.0014 3.75811 25.8247
1101 1 13.6775 3.43529 26.1381
145 3 9.68242 3.18467 27.5958
1946 1 16.7439 0.183852 24.8595
707 2 14.4337 0.382615 24.2111
1504 2 15.0253 2.21432 27.9597
534 1 16.5079 4.01313 25.0188
809 2 14.7814 1.9429 24.7297
215 2 16.657 1.4824 27.6858
1299 2 15.7735 2.08454 26.2847
686 2 18.1921 1.48979 27.6242
1676 2 18.2387 3.21093 27.7136
1550 3 18.7459 0.755746 24.427
476 3 18.0229 3.85248 26.1186
1404 3 18.5506 0.629514 26.0577
1464 3 23.4271 3.13312 24.2897
289 1 20.7204 0.102408 24.7331
1904 3 22.023 0.771579 25.9586
1479 2 23.3254 0.420864 26.6351
735 3 20.5113 4.50368 26.7788
1458 1 22.7903 2.79024 26.4596
778 1 19.8775 2.65469 25.9406
59 3 24.1757 4.41767 23.6675
1609 2 27.2385 1.54883 23.7565
371 1 28.0855 4.70065 25.9762
1416 2 27.7015 1.65614 26.739
1473 1 25.364 0.682643 26.8929
1958 1 23.4895 0.926986 24.1446
1422 1 25.8428 3.08357 24.616
609 2 24.5968 4.69666 25.9131
1238 1 25.6859 3.26672 27.8751
601 2 2.78273 7.08141 23.6981
1977 3 3.77605 8.44991 28.1019
618 2 1.27208 6.59153 25.4023
3 1 2.59628 8.40094 25.8309
502 2 1.13002 7.41873 23.9477
619 2 0.501295 8.73825 24.4214
1566 2 1.81164 5.5305 26.8302
1856 2 3.96668 7.05065 27.4494
1699 2 3.40943 5.51915 27.3623
703 3 3.84614 8.43079 23.8253
81 1 4.03382 5.69935 25.3266
929 1 7.61792 7.40611 28.0066
1918 2 5.96873 4.87099 23.9205
880 3 8.50711 5.85477 26.3425
1813 2 5.86692 7.02076 26.022
1001 1 7.07377 6.83059 24.2127
1439 2 5.33281 5.6498 27.3708
1816 2 9.35849 7.98679 24.5037
1483 2 4.93619 9.14666 25.2525
1964 3 6.29444 8.37057 25.8047
185 2 9.46685 6.5807 25.3123
1516 2 10.5506 6.04155 24.0121
1113 1 12.6341 7.20679 27.3542
1806 3 11.9402 4.96425 24.7412
1117 2 10.1482 6.21484 26.9993
1612 3 13.029 7.2807 25.2395
1832 1 10.295 9.13767 26.2097
897 3 12.5396 5.98511 25.5416
522 2 13.8735 5.33482 28.1295
1301 3 12.1251 9.16225 27.3237
1334 1 12.6418 9.3499 25.4618
1263 3 17.9566 4.91618 23.9911
1083 3 14.9658 6.05881 27.3464
1460 1 14.9377 7.78219 25.4686
365 2 15.5511 6.20119 24.1984
1971 2 17.3075 7.94401 24.6111
1656 2 15.739 5.79585 26.1747
805 2 16.1544 7.95227 23.4569
296 3 15.9328 9.33478 24.6868
937 3 18.2889 8.26642 25.7538
1563 2 14.1689 9.23231 27.1355
1726 2 15.7346 9.26046 27.5871
1628 3 21.1965 7.60777 27.4332
1508 1 18.9363 6.81894 26.4751
1132 3 18.9965 5.62104 24.3211
1293 2 19.6916 7.81795 24.813
45 2 20.2358 6.2944 24.4497
239 3 21.9544 6.35246 24.2196
556 2 21.7306 5.10246 25.7576
398 1 22.5792 8.62891 26.0292
1956 3 19.3061 9.075 23.6816
432 1 24.4463 6.47897 24.5954
1033 3 25.9596 5.32174 24.666
1308 3 26.0374 5.72868 25.9114
1338 1 27.4098 7.13025 28.0065
843 1 4.5652 13.4957 26.5054
452 2 2.612 9.59379 27.6813
1934 2 1.89807 13.1189 26.4016
830 1 3.28372 11.3345 25.0085
633 2 0.785697 9.79686 25.7185
1673 3 3.27511 11.0444 27.0662
1991 2 1.68031 10.7263 26.8516
1159 1 0.369912 13.7812 24.6663
267 2 8.73381 9.70849 27.9416
214 3 6.2473 12.5778 28.0302
132 1 8.35507 13.1166 23.705
1685 2 7.76744 12.6602 27.2601
1541 2 8.86271 10.9409 27.1239