# LAMMPS data file written by OVITO Basic 3.7.11
2000 atoms
3 atom types
0.0521638638 28.1299377504 xlo xhi
0.0521638638 28.1299377504 ylo yhi
0.0521638638 28.1299377504 zlo zhi

Masses
 
            1   10.81000000             # B
            2   47.86700000             # Ti
            3   12.01100000             # C

Atoms  # atomic

115 3 2.88277 3.61765 1.66984
220 3 3.76035 3.81393 0.389784
1555 1 2.25388 1.60452 2.3598
1361 2 0.726012 2.43693 3.91298
1475 1 27.7594 2.22281 1.49534
669 1 3.08124 3.55236 3.8832
410 2 1.48972 4.04245 1.90076
168 3 4.14526 1.97056 5.29691
422 2 4.37762 0.464706 4.66549
728 2 0.990382 4.34068 4.63126
648 3 7.85771 4.90398 0.362151
1561 2 8.74646 3.85222 0.561983
629 1 7.01466 2.94951 1.26531
1976 2 8.58767 3.63662 2.7792
797 2 7.24893 3.81771 3.69852
890 2 7.07242 2.19686 3.78305
1893 3 6.6656 5.09683 3.66263
1367 3 6.03745 1.6032 2.69799
1906 1 8.20746 0.861702 2.0565
1199 3 9.31153 2.50247 1.55129
784 1 2.26763 13.9198 1.19964
1726 2 5.85447 1.12774 4.18743
1255 1 5.23969 0.5228 1.16052
1084 2 12.4652 2.39366 1.61886
1520 1 10.8826 1.15646 2.92091
204 2 11.5985 14.0824 10.1434
218 3 11.7954 1.10549 1.15533
392 1 10.7987 3.84021 2.01899
526 2 11.352 3.04678 4.83486
122 1 13.2241 2.53035 3.53019
1281 2 11.966 4.41337 3.58333
934 1 13.9135 4.749 1.59883
1965 3 12.8102 0.527359 3.6688
498 2 17.0667 0.292828 3.82113
516 3 14.0132 1.99098 1.65383
1547 2 15.8669 0.131745 2.4681
1404 1 15.9762 2.94059 2.32258
746 2 15.078 1.15709 1.14074
1539 2 18.5055 0.155472 2.82938
1200 3 15.9963 3.98258 0.497413
1035 3 16.374 4.52566 3.6363
716 3 17.2561 3.83438 1.15601
1057 2 19.3877 1.71155 2.08185
673 3 18.1632 0.67596 1.35375
1959 2 16.7253 0.830516 0.657915
85 1 20.9143 2.43296 4.97381
1905 1 18.5431 3.85272 2.81887
1074 2 21.939 2.33346 2.88042
384 2 20.6244 1.97714 1.64655
1331 2 23.2023 3.63239 1.85378
1958 1 22.6927 1.28598 0.924946
1227 1 23.2695 3.98872 4.05178
166 1 21.3939 5.0207 1.1853
69 2 22.5473 0.978359 3.30459
1257 3 27.4136 0.346868 0.88203
535 1 27.8245 0.262526 2.9853
1017 2 26.0994 3.88033 1.8803
1914 3 4.97365 0.489973 12.6187
174 2 24.6273 4.78447 2.21497
1999 3 25.2119 2.92884 0.457667
1613 3 25.8328 1.16256 4.67891
604 3 24.6592 0.320812 8.02837
1456 2 2.12952 6.37935 3.97324
1612 3 4.23883 5.30774 0.547955
359 3 3.09778 7.55259 3.38433
1819 1 4.60951 9.31055 2.76673
49 2 1.64946 8.84083 2.59503
1016 1 0.365924 7.62781 0.843856
1864 2 2.99564 8.0278 1.6738
333 2 3.09209 6.25729 2.27084
361 1 0.19403 5.32523 2.90855
153 3 0.713061 7.91014 3.76564
1940 3 0.554085 4.68673 1.00973
589 2 6.9806 5.90191 1.20072
859 1 5.17277 6.54249 2.76012
398 1 8.34638 6.04428 2.74821
920 2 5.16235 6.43404 0.471045
335 1 7.65486 8.59359 4.43678
1348 3 6.28265 9.55991 1.40534
927 2 6.79676 7.42604 1.25906
1725 2 7.52016 8.9069 1.94914
1278 2 8.868 8.45858 1.98193
272 2 9.58639 6.47049 5.2987
775 2 5.0571 4.99731 4.68478
1461 2 9.81333 7.3186 0.935403
1563 2 10.1225 5.12952 3.44497
1382 3 12.3607 8.57188 4.47981
754 1 11.8128 7.05428 2.56813
581 2 11.3734 5.79692 4.48812
554 1 13.3953 9.63986 2.47427
1141 2 13.9694 7.07037 2.14257
940 2 11.3832 9.51849 1.38121
383 2 12.9078 6.67811 0.496643
1626 2 12.4513 8.50124 0.171202
1293 2 16.1366 5.84078 3.05254
1941 2 17.427 6.71423 1.69085
1545 2 15.5118 7.0832 3.80205
1473 1 18.0837 8.74499 0.687251
1875 3 16.0499 8.43542 3.2169
1608 2 15.6439 8.24936 1.34909
247 1 17.7233 7.21753 3.75686
866 2 19.7254 7.2183 1.64437
1903 2 19.5348 8.49244 2.44669
1623 3 19.0813 5.85506 1.95574
141 2 19.3776 9.13821 4.51403
675 3 23.9286 8.04282 13.6806
1353 2 23.2656 5.69313 2.62113
391 2 22.5289 7.30785 2.29655
495 3 23.2224 8.72691 3.76791
480 1 20.6268 6.15945 3.42306
1116 2 22.8069 7.5241 4.67821
1933 1 21.2835 8.45215 0.726408
1728 1 21.9135 0.051621 5.73981
640 2 27.5198 9.451 1.01099
1851 2 26.2793 5.56628 2.37708
1862 1 24.8014 7.0749 3.39768
1300 2 26.1449 7.61633 1.73131
1898 2 27.6929 8.70593 2.48786
707 2 24.5367 7.81611 0.555092
794 2 26.098 9.8278 3.57129
1794 2 23.2996 5.79435 0.971947
1451 2 0.59124 9.54793 3.84686
929 1 2.29554 10.265 0.815541
1969 2 1.77727 11.9512 2.72712
795 3 2.40906 12.9938 3.5184
889 1 4.13451 12.1623 2.16185
1452 2 4.14255 11.8572 4.27826
732 1 24.1528 11.8173 11.705
1109 3 3.61293 11.9585 0.181315
1742 3 25.3746 13.4542 13.0778
1214 2 5.45487 9.61221 0.283569
1343 3 5.40553 9.50295 4.66551
772 1 6.66205 11.0787 3.09895
954 3 7.77415 12.4844 1.97034
1723 2 6.5373 13.8306 2.20579
897 3 5.45 12.5405 3.62216
78 2 8.50166 10.9814 2.05954
360 2 6.16059 13.5559 4.44036
720 2 12.5957 10.8435 0.560671
1625 1 10.6883 9.55722 3.68652
683 1 10.1022 13.0231 2.61813
904 2 11.9432 11.8535 1.98144
1179 3 12.1491 11.4184 3.41102
102 2 10.0186 10.5534 1.29033
1025 3 12.1995 13.3841 2.16782
555 1 12.4553 13.5157 4.19378
1413 1 17.7115 10.5052 3.45921
1651 3 16.0591 9.4466 2.19809
1548 2 15.2373 13.6762 0.598661
1151 3 16.374 12.7646 3.4004
30 2 17.9778 13.4502 4.26827
445 2 17.2677 13.5536 0.880587
628 1 14.715 11.9497 2.88415
900 1 26.3151 10.5645 10.0644
1238 1 21.1282 9.89783 3.75372
28 3 19.5028 11.7362 2.1848
1160 1 22.1475 12.081 0.199018
89 2 19.6718 10.4131 1.48664
447 2 19.0363 12.3918 3.61571
354 1 21.4484 13.272 4.0852
572 3 21.4014 10.4129 1.47101
584 3 20.7721 13.5382 0.0573933
1044 2 26.509 12.4559 12.6409
1729 1 18.5828 11.8893 0.075996
1748 1 23.2594 9.54807 1.80332
6 3 23.8692 13.0845 3.80455
1417 2 26.2686 9.50802 1.93536
1 1 28.0143 11.1459 2.26626
1945 1 25.3461 12.0275 2.19313
1186 3 24.2379 11.2664 0.13451
1979 3 26.6346 12.2722 3.5195
474 2 25.4549 12.7743 4.75373
1274 1 1.85349 0.717657 5.18259
352 2 0.893512 3.04352 5.80724
1490 1 0.797488 4.09866 7.95034
1028 1 1.64142 1.37377 8.19947
1569 3 2.0493 2.9446 6.86098
796 2 3.00803 2.17051 5.85901
653 1 3.83511 4.00759 9.06399
171 3 0.0488572 0.128537 6.58488
676 2 4.80781 3.95571 5.90435
1049 2 8.61218 2.34798 4.97333
908 1 6.80895 2.4492 6.116
1796 3 4.69376 3.80466 7.4006
1015 2 8.81453 2.96825 6.73802
238 3 7.86135 3.93594 7.65098
465 2 8.69139 4.09486 9.14678
833 1 5.27993 0.509282 8.42274
1152 1 8.35303 1.72012 8.27799
268 3 25.955 0.151136 3.66878
1863 2 9.89221 1.78589 7.03164
276 3 0.684092 13.2451 10.8247
1642 2 11.324 2.49388 6.41986
1400 2 11.8274 1.08427 5.31925
1465 1 10.7963 2.91849 9.13941
145 3 9.99285 3.51461 5.92241
774 1 11.322 0.524088 7.48531
1993 2 13.5237 1.49974 6.24949
1014 2 17.323 3.94248 5.00975
1827 2 14.1391 4.3575 6.92993
1031 2 15.8543 3.77477 6.22827
1153 3 16.5818 2.08345 7.60365
1930 3 14.1239 2.94059 6.28863
851 1 14.823 1.29081 8.2615
326 2 17.526 0.865558 8.25001
144 1 17.9295 3.88609 7.07023
1328 2 22.9906 10.7396 13.9901
241 2 20.1327 0.713811 6.2851
1846 2 20.3892 1.89354 7.30626
1923 2 19.5023 0.975727 8.75423
1054 2 21.8443 2.75523 7.08082
1789 2 18.8901 1.8412 5.43801
1937 1 20.9022 3.67233 8.72234
1201 3 18.9131 3.28623 5.02702
31 2 23.127 2.5682 5.86706
1435 2 22.3442 4.35514 6.44968
68 1 21.6936 0.810312 8.92331
1187 2 24.4162 0.911405 5.58796
1086 3 27.2996 2.28313 8.86721
477 2 26.716 3.41879 7.84195
838 1 26.9843 3.66946 4.97062
1884 3 25.5738 3.84886 6.7833
1734 2 24.7574 2.85658 5.64194
1855 2 23.7916 2.91098 7.44941
1110 2 23.366 2.50719 9.03484
1053 3 23.9233 1.47052 8.29462
285 1 26.2123 1.21686 6.82126
1679 2 25.2463 4.76348 5.65091
95 2 3.87702 6.34882 5.86267
1046 1 2.4561 8.2121 5.25939
923 1 3.13522 6.76821 8.18911
1222 3 1.09048 7.37331 6.63436
1059 2 1.02841 5.85984 5.27218
369 2 3.48728 9.19857 8.16906
1687 1 1.03345 9.13901 7.8717
1181 3 1.26122 5.87676 6.8044
461 2 5.62653 5.59728 7.90706
1500 3 4.51525 8.18968 8.48227
94 2 5.18295 7.96162 4.8133
1542 3 5.86629 6.37629 5.01001
1335 1 7.86556 5.2559 5.62904
206 1 6.38567 7.68558 7.05422
381 2 7.10172 5.90641 9.00086
462 3 6.98744 5.1243 7.45491
1355 1 8.7221 9.14313 9.82477
658 1 9.70391 8.99687 6.29118
1038 3 8.58003 7.47716 6.02958
1546 2 6.65534 8.73529 9.0815
1901 3 7.49174 7.41991 9.93605
1740 1 9.38331 6.72725 8.36378
1511 2 12.1126 6.96409 5.27575
1806 3 10.1757 5.01486 5.57212
548 1 11.9444 4.8364 7.08504
1874 3 11.2259 8.23541 7.90605
1280 2 11.757 7.40834 6.88866
1731 3 13.2795 6.5288 6.68088
600 3 13.6986 5.63308 7.69975
140 1 12.574 6.77437 9.20216
1427 2 12.1859 9.19228 8.86983
1848 2 15.8494 7.20714 5.45299
1240 1 14.5144 4.54717 9.10254
1027 1 14.9992 9.15427 5.03912
1892 3 16.6588 5.26408 8.40324
450 1 13.7326 5.4861 4.5254
1808 3 16.3091 8.45791 6.19842
950 1 15.7312 7.48527 7.9305
562 3 17.954 7.79799 8.25589
1768 2 17.8496 6.03566 8.91959
560 1 17.4261 9.41293 7.47367
647 3 19.9343 4.05246 4.4823
935 2 21.5209 5.20204 5.04989
1628 3 20.0875 7.76854 4.65969
692 2 19.7357 5.95403 7.79065
9 2 21.334 8.16813 5.55536
1800 2 20.534 7.49979 7.40474
1902 1 23.2841 8.23651 7.14359
1316 2 21.3089 5.83708 6.89856
265 2 22.624 6.10662 5.92746
26 3 23.0332 5.94527 7.83058
1812 3 24.2786 6.28097 8.11871
597 1 27.2939 6.11245 6.96853
1372 1 27.212 8.35894 5.29308
228 2 25.6424 7.47997 6.46874
515 2 25.8298 6.15954 5.41745
98 3 25.2224 8.91544 6.73583
1177 3 24.6413 9.09511 10.5053
2000 3 27.3073 5.7708 9.20667
693 2 2.31048 13.4966 7.64104
1366 1 2.09664 11.0175 4.55289
75 3 4.10152 10.9583 7.37829
51 2 2.54272 10.668 7.43342
713 3 4.98716 12.7372 5.3557
1003 2 0.888779 13.4964 6.88608
1611 3 1.32249 10.9081 6.518
347 1 4.16884 12.9784 7.5447
757 3 1.01355 12.2939 5.7865
1365 2 2.49369 9.8812 9.1371
806 1 28.1113 10.7917 12.8089
489 2 2.89076 13.768 9.64127
203 2 8.78084 10.5703 7.77094
1354 1 8.66479 12.8048 4.39037
1925 2 8.68991 10.5999 5.12855
346 2 9.1831 11.693 6.29023
254 3 7.2996 9.47948 7.70892
830 1 6.28657 11.4662 6.44343
657 1 8.21603 13.0147 7.75291
664 2 9.08925 11.2046 9.23635
104 2 6.14061 13.525 7.92427
407 1 5.03025 10.8169 9.47278
740 2 9.57322 14.0201 6.57002
1680 1 12.9824 10.4579 5.06687
951 1 10.6435 11.9193 7.82535
91 3 12.4144 11.1573 8.3434
1268 3 10.4752 13.7618 4.75626
86 2 14.2727 12.3174 4.85912
1095 1 13.8079 13.3836 6.95384
1230 2 12.6968 13.013 9.15118
1192 1 14.286 10.2234 8.27784
42 3 14.8369 11.5359 5.94317
300 3 14.8805 11.8489 7.29549
684 1 16.1084 12.7944 5.95119
616 1 17.017 12.075 8.7192
649 3 18.7349 10.861 7.72323
45 2 22.0598 9.70544 5.32951
1935 2 19.2104 12.473 7.65095
1696 1 20.2019 9.46578 6.77054
1275 2 21.5267 12.3777 6.18058
1207 3 20.3326 13.0389 6.48834
1775 3 21.7005 11.3258 5.05292
72 3 22.6154 13.5002 6.9659
1582 2 19.7679 11.4391 8.90659
1229 1 23.7026 12.7954 8.51492
3 1 26.819 13.6723 6.54503
1514 1 26.9061 11.3031 5.55948
957 2 25.9477 10.1008 7.53507
914 1 24.3735 10.2335 4.78616
308 2 24.1735 13.9763 6.50729
236 2 25.1019 12.2658 6.49057
123 3 26.2375 11.7003 7.37905
1636 1 1.50896 1.00712 11.3669
374 2 4.87832 1.65693 11.5921
1756 1 1.33811 3.87083 12.3323
623 3 2.45382 2.49992 9.92074
517 2 0.923998 2.61549 10.1801
1975 2 3.70261 1.58138 10.1222
1292 3 2.60787 4.40417 14.0067
138 3 1.38371 1.89343 13.2528
898 2 9.44684 4.18338 13.4323
92 2 6.28807 3.52291 11.2918
530 3 8.11747 3.75682 12.6554
1305 3 5.31414 2.90007 12.3738
919 3 6.81383 0.508851 9.92247
189 3 6.67133 1.82947 9.96683
767 2 6.39413 3.09096 9.34824
611 1 7.08248 1.67945 12.6349
1127 1 6.16112 4.24627 13.8635
436 2 8.75395 0.10816 13.5241
845 2 9.52491 0.811887 12.0876
1091 1 9.76957 3.12264 11.7269
1340 3 10.0707 0.830297 9.26084
43 2 9.44345 1.27557 10.5953
1047 1 11.9932 1.40382 11.3829
654 2 11.7517 3.99276 11.0729
739 2 13.5725 3.59191 11.1071
943 1 12.45 3.41286 13.312
479 3 14.6305 2.68788 13.0217
1375 1 14.5559 0.872828 13.0758
1150 3 20.9776 11.4317 10.0852
286 3 14.4978 2.50732 10.1448
674 1 16.8506 3.56414 9.67238
1556 2 14.8811 1.16319 10.5173
1580 2 17.8482 0.553492 10.4934
1345 2 17.8564 2.0401 11.6457
280 3 18.8707 2.56813 12.8344
125 1 16.9831 2.90128 13.4182
325 2 18.8979 1.81967 10.0862
1715 3 25.1744 11.8113 8.97066
1895 2 19.7599 1.61937 11.8041
813 1 20.2931 4.01797 11.2492
1764 2 19.9141 3.50911 13.2698
1450 2 21.1669 0.42503 11.6946
131 2 20.398 1.90943 10.2859
442 2 21.7105 0.549977 13.2664
1363 1 22.4227 2.41195 11.7391
539 3 23.8227 4.22279 12.0381
883 3 22.5635 4.5116 11.1272
88 2 27.9195 0.126648 11.7896
1169 1 25.8852 0.338389 13.2152
1576 1 24.8352 1.19629 10.2392
1803 2 27.6491 1.58232 10.1695
870 3 26.7974 1.09806 11.4834
1143 2 27.5354 3.26331 13.8979
971 1 26.9451 3.38516 11.2291
1910 1 24.4209 3.25397 13.7438
670 3 26.2428 4.03337 13.8821
1103 2 23.3454 1.43206 13.6118
151 3 24.1612 1.41042 12.2341
1751 2 25.0739 4.72486 12.4224
862 2 28.0239 1.76085 13.6495
660 3 3.19474 6.42982 10.1829
464 2 1.37253 8.20622 9.52138
1019 2 3.85209 5.83195 11.3744
1079 2 2.35043 7.3683 10.6118
17 2 1.83917 8.57252 12.7884
529 1 3.56051 9.74349 11.9174
1737 1 2.26907 6.33043 13.2346
734 3 3.49674 8.07648 13.0289
79 3 1.01233 7.76018 11.2927
1097 2 28.109 8.45285 12.1723
414 2 4.64258 7.16356 12.7843
1666 3 27.9056 4.91023 10.1622
1967 2 5.39397 5.85219 11.7426
606 3 6.3116 6.70593 12.6566
667 1 5.2524 7.11255 10.003
510 1 7.6233 5.14893 11.0429
211 2 8.86895 7.11663 10.677
894 1 8.28589 7.94816 13.0998
219 3 9.30563 9.31134 11.8746
832 2 9.74513 4.77247 10.2558
916 2 10.1701 7.95896 11.3221
1970 3 11.431 5.02488 9.95112
1700 1 10.4388 5.91386 12.38
879 2 13.048 5.04872 10.416
417 2 11.859 8.40261 10.3974
602 1 13.8916 7.64446 11.7093
169 3 12.7129 6.91461 13.4629
1712 1 11.5543 8.75505 12.9028
258 3 14.5405 8.33971 9.93599
1424 2 23.8995 10.4705 9.76222
656 2 16.6014 5.32894 13.282
553 1 14.7236 4.75472 12.2401
1351 2 15.3694 6.17028 10.2948
434 2 18.1494 6.10173 13.4872
1635 2 17.4491 8.14882 9.49422
443 2 16.1526 7.65933 10.4651
682 1 18.0861 7.61048 11.4745
1165 3 16.0912 7.94265 12.1469
661 2 16.7638 8.65268 13.2718
1899 1 15.4925 7.27633 14.1476
760 3 22.0658 8.02964 9.9814
135 2 22.9988 9.09899 9.92977
1242 3 20.1721 6.34499 11.1824
1822 2 20.0264 6.00676 12.9332
1766 2 19.5878 5.56835 9.6301
451 1 21.764 4.53906 13.1656
1909 1 20.1019 7.9372 9.61605
699 1 22.1363 5.99629 9.59518
632 3 19.8772 9.23528 11.6127
1767 2 20.4263 7.92186 12.0531
1077 3 21.0401 7.75722 13.4573
1668 1 23.595 7.67657 11.9854
1402 2 20.4284 12.7979 10.8875
1270 1 25.7017 7.65694 8.56158
765 1 24.5292 4.49134 9.59123
1833 1 25.8761 8.94922 12.4167
1643 1 27.1196 6.39238 11.3206
334 2 22.4577 11.5381 9.90935
882 3 25.2197 6.0521 11.5513
226 2 27.9419 7.38534 14.0904
1597 1 1.42871 12.4015 8.88146
71 3 2.76551 10.8425 10.0471
370 2 3.08286 11.8808 11.0095
1320 2 3.83533 12.7028 12.8967
149 1 2.08835 13.9557 11.9644
961 2 4.39958 12.7322 11.2331
279 3 0.214124 12.5786 11.8597
687 2 5.30295 10.0166 13.8013
769 3 8.29859 12.41 10.1713
1854 2 5.64104 9.92501 11.8606
1973 1 7.81102 10.9176 11.4752
558 2 8.2446 10.6884 13.7842
1030 2 7.0117 9.62183 13.1108
1357 2 5.82871 12.6877 12.3905
1988 2 7.65372 13.5136 10.1049
47 2 5.60233 11.464 11.3431
342 3 8.68542 12.2279 13.4721
571 1 9.97462 12.5052 11.674
176 3 10.4748 11.2556 10.2483
1076 2 10.4785 9.97275 11.0916
1296 1 12.6435 10.5575 10.2203
901 3 11.2864 13.892 13.1042
192 3 26.0654 10.9771 12.2652
1606 3 14.7112 13.9685 11.8709
1927 2 15.4104 12.5825 10.9146
993 3 14.0432 12.3153 9.85475
939 2 17.616 10.0382 13.4048
1418 2 14.4476 9.61097 10.9717
786 2 14.8252 11.2817 10.7614
1953 3 17.0957 13.1633 10.5484
580 2 14.6118 12.5239 12.5463
991 1 16.9001 10.0433 11.032
1082 3 18.1827 11.2263 12.0227
1739 2 18.5015 12.7755 11.2464
1682 2 19.7738 10.2429 10.536
547 3 19.8105 13.9125 11.9647
651 3 22.3181 11.4394 12.9618
147 3 20.9763 11.7858 12.9793
853 1 19.0739 12.0857 13.5872
302 1 3.22507 2.41894 13.607
1327 1 14.4433 10.2624 13.9848
931 3 3.89574 9.32694 0.162844
1154 2 2.60029 7.82982 0.0825191
633 2 25.6082 13.9584 0.282533
1701 1 25.9273 5.54774 0.253233
1750 3 4.90378 3.46494 15.3737
1481 2 1.53362 3.29821 18.3561
1440 2 3.47412 4.29367 15.1944
573 3 8.40448 0.319488 27.6361
856 2 5.20904 4.70373 16.4296
1258 3 7.92133 3.0848 16.1541
41 2 6.57016 1.89601 14.8434
281 2 6.85241 2.77019 17.1081
1872 3 6.2395 4.26733 17.5722
609 2 8.24822 4.59798 17.0351
395 2 6.69492 0.926159 17.4348
1675 3 6.541 0.740199 15.7439
1467 1 20.8996 10.1792 14.185
1907 2 10.7412 1.54648 17.7151
924 1 9.76954 3.10438 15.7331
681 2 11.6402 1.76001 16.4178
798 3 12.1732 2.50317 15.1253
771 2 13.4012 3.87296 15.57
230 3 12.3623 2.17872 18.6892
8 3 9.94987 1.05028 16.346
173 2 12.8279 0.551876 15.4541
758 1 14.0136 2.11211 16.7443
328 3 15.7541 1.30976 14.5848
1708 3 15.8692 2.10213 17.7533
741 1 17.1727 2.14575 16.1884
358 1 16.2731 4.18561 18.5937
1616 1 15.756 0.0305464 18.2792
836 2 18.7214 0.868503 17.3701
595 1 19.1339 4.73829 14.7875
1694 2 17.9786 4.4447 16.8729
841 2 15.5706 0.45518 15.6795
319 2 19.4279 1.29994 15.7288
1122 2 21.1959 4.87924 16.8027
99 2 21.5863 3.16284 17.8763
541 1 21.1571 2.77464 15.3201
120 2 19.6119 5.18456 16.9589
1115 2 20.6987 0.587323 14.8375
1703 1 20.5743 1.2444 18.5601
1291 2 21.8622 1.47976 16.8267
493 2 22.793 4.18023 17.5624
1140 2 22.7936 0.299576 17.5997
1992 2 19.3731 1.99201 14.3006
688 3 25.2722 2.73749 15.8834
1844 2 23.9653 3.77391 15.7698
1692 2 23.7975 1.93199 15.097
525 1 27.718 2.6894 17.7019
1565 3 27.0466 0.746395 18.1655
40 2 25.7226 1.52011 17.7986
1790 1 1.02093 4.68582 15.6254
303 2 1.05739 4.77266 17.7869
472 2 4.26672 6.77949 16.3502
1219 3 3.20794 7.52847 15.5227
344 2 1.5159 6.31266 17.9574
1828 2 3.17946 8.4969 14.3809
1621 1 3.68129 9.14844 17.4471
1695 1 0.637363 7.87344 16.171
787 3 4.34829 9.42818 14.5817
761 3 5.7516 5.93981 16.0701
709 1 6.65784 9.28744 15.7375
1598 1 6.82932 6.38091 18.0935
185 2 8.7779 7.98246 18.2393
1799 3 8.46777 7.4099 14.8051
1722 2 7.09157 6.88968 15.6408
1502 3 8.74003 9.17777 15.3125
455 2 5.88957 6.97318 14.3672
266 3 7.37371 8.52155 18.1279
619 2 5.69166 8.56279 17.6879
527 1 14.6311 5.46584 16.523
1393 3 10.1165 9.08218 17.9634
70 1 10.9007 6.85376 18.0302
756 2 10.2856 5.04869 14.578
1195 3 10.2492 4.93425 16.011
1415 2 10.9119 6.49585 15.6823
1707 3 11.9536 7.44131 15.9334
1132 3 12.47 5.33981 17.8116
905 2 11.6286 4.63628 16.8553
486 2 13.3468 7.5611 15.4072
1018 2 9.15634 9.22813 16.6085
1709 2 13.1582 8.68089 14.2309
522 2 12.0355 6.07204 14.5479
630 1 13.9697 8.46305 18.3082
1033 3 17.5974 6.44422 14.931
77 2 14.495 8.8784 15.7443
1396 3 14.8498 7.36514 16.2754
459 2 17.6376 5.81319 16.4792
1983 2 15.6618 7.13763 17.9486
1217 2 17.3389 7.69073 18.0812
382 2 22.5148 5.2599 15.7236
1702 2 19.1937 4.66347 18.6426
1596 1 20.0492 9.32776 18.5069
712 1 19.161 7.55813 14.8948
292 3 23.0986 7.58476 17.8861
244 2 22.5576 6.20191 16.9462
982 1 26.1104 4.40094 15.9001
1534 2 25.1998 6.05543 17.2469
537 1 26.9858 6.22484 18.4825
1928 2 0.122025 9.36813 17.5753
881 2 27.3241 8.22341 18.0431
1149 2 25.3 8.72457 14.5443
1640 2 6.00194 0.442758 23.5396
1571 3 26.7916 8.41362 14.1645
1298 3 27.7517 6.37917 15.3421
415 2 4.68757 13.8668 16.7012
926 2 2.10201 12.8527 15.4041
869 3 1.59375 9.4745 17.3361
1191 3 1.58974 12.7118 18.3314
906 2 3.48041 13.9075 15.4758
110 1 3.62967 11.0209 15.635
214 3 3.26008 12.5004 14.1054
1221 2 27.8258 12.9713 25.326
1720 2 0.676566 12.6303 14.7631
915 1 0.509554 11.7174 16.9362
714 1 6.8139 12.0358 14.5239
1886 1 9.03511 11.4579 15.8067
284 3 6.55187 11.2039 16.2682
997 3 5.62549 10.6647 17.2207
742 2 8.80107 13.5557 17.6875
858 1 8.28902 10.6475 18.8275
90 3 8.45745 13.296 14.3146
925 2 11.3379 12.69 16.9518
116 3 12.4452 10.3094 14.4308
834 1 11.9827 9.25807 16.496
1368 3 9.78892 12.9195 16.9635
1780 3 13.1462 10.9587 17.9232
432 1 13.5599 12.8625 17.7625
546 3 12.4767 13.8185 16.3997
340 2 11.5891 11.2583 18.1899
1857 1 12.4778 12.4662 14.1515
117 2 18.2806 9.5495 14.7339
1652 1 17.0712 12.8363 15.806
1342 2 15.7 9.71353 16.3119
622 2 16.1214 13.166 14.1491
1231 2 14.8072 10.8914 17.8906
937 3 16.3199 10.8149 15.7123
1656 2 15.2478 11.5044 16.4425
1590 3 17.5134 10.9058 14.6406
39 3 12.6416 13.8214 24.6403
1888 2 14.9256 13.566 16.0209
1407 3 18.7927 13.5433 17.9772
65 1 19.9848 11.6155 17.3156
1753 3 20.5822 9.57128 16.3321
1673 3 19.0276 9.4162 16.1478
83 3 18.8441 14.1674 16.6896
1792 3 23.4069 12.4447 18.7147
469 3 21.841 12.3363 18.5799
223 2 27.7121 11.3653 25.9663
1092 1 23.4065 9.30138 15.7814
124 3 24.4493 11.5018 18.2221
1007 3 26.856 12.9301 17.5401
585 2 0.0804602 13.3138 18.1149
1392 3 24.272 10.634 17.0308
1482 1 26.4726 10.3895 18.4297
397 2 24.8278 13.552 14.7688
828 2 27.3769 11.5653 14.6283
666 1 27.0093 13.9576 14.2175
1130 1 24.9924 13.5377 25.5507
487 3 3.17481 3.61022 18.9979
181 2 1.61939 0.209635 19.9524
1294 2 0.579151 1.00986 22.9973
1061 2 1.09685 0.937241 21.4974
287 1 2.71283 2.77032 21.0113
1641 3 1.95908 1.32502 22.6034
723 3 4.86949 3.19413 21.3166
221 3 1.06761 3.97483 21.9109
1176 1 4.99159 2.5323 18.01
37 3 4.84311 2.07112 20.3521
1224 1 7.58438 4.149 19.1028
1752 1 6.31004 2.49566 22.6201
722 3 8.78385 2.76074 20.4943
96 3 7.84193 3.03745 21.4344
449 2 5.31583 0.829892 21.7276
1431 1 7.19048 1.33099 20.1392
865 2 8.23127 3.80453 22.9674
1586 2 10.0494 2.3892 19.2379
1013 2 10.1651 3.94419 20.8062
1749 1 13.5275 4.04088 18.8672
1468 1 9.93815 2.34286 22.5577
1714 2 12.044 3.06884 21.4558
1081 2 12.6681 0.25446 22.9221
708 1 13.1601 4.27932 23.306
63 3 12.9983 1.40307 21.8997
1194 3 11.2896 3.85975 22.292
409 3 13.4737 2.80014 21.2102
1757 1 11.9078 1.1857 20.064
1574 3 10.5222 0.246278 21.7239
1771 3 15.1636 2.50166 18.9363
1860 2 16.9874 0.437568 20.5604
506 2 16.8878 2.16592 21.2603
1785 3 15.7796 1.74678 23.1662
1508 1 14.9625 1.4856 20.7328
831 1 15.3535 4.29852 21.4597
1942 2 16.4898 0.573585 22.6066
1736 2 17.7001 3.52358 21.1392
1443 3 18.4715 4.35181 20.0031
1124 2 15.6316 3.30257 23.8436
1338 1 18.1805 3.20611 23.4061
745 2 19.8857 3.18513 19.8084
1849 1 22.3153 0.843335 21.1242
778 1 18.893 1.43482 21.3197
468 2 22.2017 2.98635 20.1523
1797 3 20.7028 2.45261 20.7881
1287 3 19.9115 3.2134 22.2104
473 2 22.9736 4.54039 20.9025
544 3 23.4166 3.55478 22.8176
703 1 25.8038 10.2999 27.7875
1442 2 23.8551 3.18189 20.5798
1897 2 26.031 1.31736 20.9366
393 1 27.9411 2.54111 21.1323
545 3 25.6641 4.54454 18.6429
1961 3 26.1337 3.07345 18.823
1781 2 25.3079 2.78211 20.3104
1532 1 25.2199 2.97313 23.5037
1866 3 26.6785 3.8585 22.8698
550 3 23.2936 0.832871 18.862
618 2 26.7426 1.10319 22.4756
136 3 2.47612 7.25231 18.6223
1189 1 1.23097 5.17153 20.0092
979 2 3.91849 6.76036 19.985
601 2 2.15208 4.90889 22.1
663 1 1.06745 8.59913 19.1475
995 1 5.38649 4.7776 19.7868
1347 2 2.45427 6.09223 23.3801
235 2 0.643228 7.36399 21.6545
785 2 1.22559 8.96179 21.9282
201 2 3.05697 6.36828 21.671
1397 1 4.19825 7.78263 23.4877
1856 2 3.91788 8.22117 20.7652
844 1 4.30751 4.76737 23.0428
880 3 7.02596 5.65793 20.0862
873 2 5.17479 7.56001 19.1058
1001 1 8.4907 5.56178 21.4672
680 2 7.9462 8.56458 19.5323
1459 1 5.6984 6.76167 21.4411
1119 2 8.19718 7.53029 22.2598
863 3 6.00055 6.66842 23.5115
1807 3 5.18031 8.75301 21.265
396 2 6.65355 9.20926 21.2783
152 3 6.42454 4.94685 23.2605
992 2 12.6018 8.39525 20.0542
1770 2 9.69623 5.13119 19.4163
1971 2 11.1876 4.09421 19.0318
1843 1 9.80019 8.63205 20.5834
1950 2 11.1005 6.53448 21.0531
614 1 13.6316 7.2052 21.2818
1759 3 10.0107 6.74786 20.2158
534 2 11.8766 8.47003 21.4699
389 3 11.5193 5.3436 22.2253
570 3 13.9355 9.09476 20.5778
568 2 9.58355 6.93363 23.0774
1769 2 10.1062 8.72349 22.6254
385 1 13.6023 9.89402 22.6153
1912 3 17.7317 8.75697 19.2407
1234 2 16.1443 6.19082 22.6644
427 3 15.3648 6.80779 19.6016
296 3 14.3316 6.05642 23.3514
453 2 18.3849 5.13061 21.2972
1379 3 14.6264 5.48205 19.8186
1670 2 16.2916 8.7476 23.6963
1667 1 19.1069 8.47992 22.6043
1634 1 18.3967 6.72921 20.0249
1814 2 17.663 6.34899 22.3925
857 1 16.547 8.92749 21.0388
289 1 21.6751 4.91661 22.4875
1216 3 22.8311 7.53608 19.1895
1674 3 19.7495 7.82501 20.9274
1089 2 19.4121 6.05091 22.344
341 2 20.7879 6.87518 21.7422
1444 1 23.0246 7.36889 21.4975
270 2 21.213 8.02711 20.3504
1421 2 22.2697 8.99478 23.1416
1826 2 20.9109 6.82711 23.5822
200 1 23.8219 5.66093 18.9063
1131 3 24.321 9.08625 20.9698
87 1 24.6534 8.45234 19.0274
1220 3 27.0167 7.89979 19.6803
1791 2 27.9295 6.65364 20.4215
113 1 25.6457 5.04058 20.7665
899 3 24.8415 6.81551 22.0618
1579 1 26.6619 7.9836 21.713
1968 3 25.7623 6.38472 22.9233
677 2 3.66974 12.6509 20.2584
44 2 2.52739 13.7786 19.422
717 3 2.48944 8.91979 21.083
1213 2 3.57395 10.9863 21.0905
1173 3 24.7396 11.1673 24.9323
1633 1 4.09128 13.3273 22.8506
533 3 3.28822 11.3081 22.419
1889 1 1.58693 12.5797 21.3319
452 2 2.48244 10.1184 22.6267
1120 1 5.29457 11.3258 19.644
1449 2 7.41223 9.05295 22.7042
1071 2 6.67816 11.9056 21.6647
1517 3 7.06526 10.7507 20.6858
768 3 5.83447 12.5953 23.1676
29 2 8.57797 10.6725 21.4824
1954 3 8.32623 13.7783 19.6778
198 2 7.09092 13.315 20.2782
156 2 9.3354 12.1112 22.9511
1098 2 9.86512 13.557 20.5739
1073 2 10.7282 10.1611 18.9623
250 2 9.75832 10.6536 20.3242
748 1 14.1214 11.1357 20.2606
1096 2 9.68199 10.5412 22.5958
1956 3 13.2085 11.9309 21.7777
179 3 13.5556 12.9963 22.6986
511 3 9.85683 13.5787 22.2305
24 2 17.9431 10.4525 19.2911
1541 2 15.9959 10.2177 22.6664
1924 2 15.9182 13.0173 20.3445
1350 2 16.6221 10.468 18.6594
690 3 16.2986 12.0012 19.1639
599 1 18.1942 13.0192 19.6129
1829 1 15.7065 12.5829 22.783
631 3 17.1017 10.6776 22.0378
594 2 17.1476 13.8975 21.6279
1738 3 19.156 10.9931 19.7745
781 2 18.464 10.8429 21.5019
964 2 20.8051 11.7721 19.3813
615 1 20.563 10.3506 21.5822
394 1 22.3243 13.4219 20.2715
1549 2 27.7978 13.53 23.7655
725 3 27.9433 13.2433 22.2812
976 2 23.455 9.60062 22.1883
416 1 24.4512 11.394 20.4381
1285 3 25.3326 13.0477 21.3421
1434 1 25.8568 12.1816 22.9635
747 2 25.1332 9.91086 22.0202
521 3 26.6948 10.2698 23.005
590 2 23.7293 12.7745 21.6438
108 2 2.26819 0.415807 26.7121
202 2 3.13902 2.1174 23.5941
154 2 27.9777 0.863955 27.7201
1070 3 3.02561 0.0949008 28.0284
1138 1 1.29575 1.89433 25.3639
73 3 28.0094 2.76656 27.4063
1246 2 2.77793 3.90378 25.4261
81 1 0.76001 4.57674 25.5003
932 1 1.79145 3.11528 27.9892
183 2 4.05094 2.10985 24.8896
1204 3 4.60652 3.6883 25.2136
1043 2 5.21643 2.71224 26.4405
1273 2 8.80525 3.6469 24.5998
1466 1 7.52333 1.77421 26.0378
1745 3 9.07266 4.82173 25.5307
1068 1 5.89899 4.5695 27.3877
592 1 6.52928 4.12282 25.0473
1339 2 4.47314 2.48238 27.9812
1144 2 9.3352 3.24193 26.2145
702 2 11.2611 1.71081 24.8797
378 2 9.47323 1.99983 25.1194
1462 3 11.1486 0.458992 23.7823
196 2 11.8244 2.51982 26.3875
782 1 13.9979 1.62919 24.3461
1622 2 12.1976 4.23145 26.9008
1307 1 10.4645 1.73889 27.907
1832 3 10.107 3.80856 27.8819
1882 3 16.6965 0.598569 26.964
1469 1 17.1823 0.950887 25.0754
1083 3 15.0934 0.857442 26.4997
514 2 18.4375 4.03946 25.8084
1727 3 18.5295 2.52412 25.5005
1504 2 14.2737 3.65544 24.9823
305 3 14.9851 4.19927 26.3228
93 1 13.6831 2.55382 27.0815
701 2 20.5666 3.18071 23.5267
1356 1 19.2379 1.94859 27.6366
1835 2 19.3245 0.71578 25.2038
1193 3 20.7031 0.60837 24.5014
1334 1 21.4663 4.00612 25.8536
27 3 21.2577 2.12164 24.2433
1266 2 23.1857 2.37892 24.0232
1362 2 22.8526 2.09641 26.6904
373 1 22.3644 13.7832 14.1997
1228 2 21.4275 2.48267 27.5822
887 2 27.9565 0.107361 26.2583
1260 2 25.0943 12.5135 27.5611
1271 2 24.1642 1.28217 25.0025
257 1 23.8917 3.8657 27.5964
751 2 27.23 0.391625 24.9687
54 1 25.9213 2.04947 26.215
855 3 26.4472 0.714092 23.9083
350 2 23.733 3.11947 25.5735
524 2 27.1382 4.04834 24.4212
1171 2 24.9202 4.13249 25.3734
1741 1 15.19 11.3672 28.1293
549 3 4.18931 4.87401 25.0287
1816 2 1.18525 7.35337 23.6698
283 2 1.13566 6.74151 26.4152
1944 2 1.80409 6.38302 24.9979
872 1 3.99166 6.57984 26.4706
1599 3 1.23869 8.11315 27.3401
1604 2 0.179201 9.27468 27.4968
1871 1 7.89977 9.65463 27.8844
1226 1 7.91119 6.10867 24.4077
332 1 8.04962 6.77985 27.5301
613 2 6.00616 7.04133 25.1793
543 3 6.63586 6.0375 26.0858
1602 3 5.17083 8.18888 25.5143
1463 2 4.9683 9.0459 26.7709
1163 3 9.99629 8.9319 26.7085
1164 2 5.86912 9.52529 24.7595
1476 1 8.98135 8.63369 24.7982
1391 1 12.0516 6.91373 23.4089
779 2 12.8632 5.35229 25.8908
1919 3 9.88642 7.78379 27.3609
1962 1 10.9971 5.99131 27.7204
1301 3 11.5378 5.77449 25.4281
1277 1 11.9714 9.61024 26.1342
368 2 10.1216 6.10142 24.8452
729 2 14.2878 9.53092 27.2567
877 2 11.2246 9.33056 24.0818
1203 3 12.4281 8.50294 24.4611
1966 3 13.191 7.74002 27.1589
1686 2 16.9388 7.34223 23.5048
1779 3 14.4867 5.44488 25.8638
984 1 16.1959 5.01418 24.6671
1370 3 17.5043 7.04917 25.1569
1631 1 15.366 5.99191 27.4811
1021 2 16.6975 7.27041 26.5331
1492 2 15.9115 8.84286 27.0183
1166 2 18.1688 5.51319 25.2614
1306 1 14.2419 7.22505 25.1661
755 2 18.1618 8.57055 26.207
1232 1 18.5361 5.94124 27.8993
1394 3 20.9416 8.44988 23.7381
1841 2 23.1026 8.85947 27.0361
1535 2 20.42 6.8743 27.3107
371 1 19.7872 7.50135 25.4756
1004 3 21.4351 5.57436 24.4776
1974 2 20.8717 6.00077 26.0823
1159 1 22.2934 8.33868 25.1368
1094 3 19.1492 7.83257 27.5023
1114 2 22.1693 6.43664 27.5473
512 1 27.6279 5.96861 23.4094
946 2 27.6013 6.40139 26.3263
735 3 26.7722 5.21689 25.4692
1483 2 26.9007 8.04191 26.7566
1717 1 25.2589 6.43466 25.4263
1678 2 25.0557 8.12642 27.0037
1488 3 25.7712 8.82875 25.6541
1880 3 1.6481 13.5458 27.5883
132 1 3.38566 13.5464 26.7632
948 1 0.462352 9.76416 24.2098
867 3 4.1501 14.1164 24.492