# LAMMPS data file written by OVITO Basic 3.7.11
2000 atoms
3 atom types
3.5372958531 31.5285924879 xlo xhi
3.5372958531 31.5285924879 ylo yhi
3.5372958531 31.5285924879 zlo zhi

Masses
 
            1   10.81000000             # B
            2   47.86700000             # Ti
            3   12.01100000             # C
 
Atoms  # atomic

958 2 6.64459 7.82184 7.13759
358 3 6.08981 6.2453 3.85884
968 2 4.77015 4.8962 6.44314
1545 2 6.5545 6.03133 7.07305
876 2 6.87247 5.66266 5.30475
1382 2 6.45042 3.97043 5.19481
1854 3 23.1849 16.4112 4.15527
956 1 4.85803 6.97512 5.3638
1783 3 3.88879 5.58632 7.69944
875 3 5.19214 6.63004 7.16379
1045 1 8.13869 7.44837 5.08407
1568 2 10.3373 4.3262 7.61371
664 3 10.1419 6.39018 4.07068
1082 2 10.0784 6.4878 5.61367
1966 1 10.9016 6.45129 7.89009
657 2 10.8 4.66803 5.98869
128 3 12.2414 4.25468 5.17707
562 2 9.75298 8.02176 6.5723
1442 1 8.58795 4.24489 5.91362
1940 1 12.2572 6.22288 5.04745
36 3 12.3029 7.78997 3.9083
693 3 13.8166 7.43658 4.77874
920 1 16.1993 6.21295 5.49332
288 3 15.1357 5.58768 7.64026
169 3 17.1178 7.29941 7.12585
1229 2 15.329 4.34319 6.70403
1890 1 13.9911 8.08148 8.08684
1677 2 15.5355 4.16906 5.13007
1307 3 17.4883 7.6752 4.63842
298 2 21.1822 6.16442 5.39641
1240 2 20.4584 5.96634 7.33839
1782 3 22.172 5.39742 4.19947
541 2 20.8178 7.96848 6.89237
891 1 19.31 3.90432 7.80842
286 3 18.2563 6.37864 3.91476
1184 1 22.9113 7.61697 5.74116
1834 1 26.4379 7.4291 4.91523
60 1 22.2928 4.13093 6.18829
342 2 24.5321 6.47657 7.18699
1560 3 26.4931 3.9704 4.84149
1101 2 25.0828 7.66954 6.63949
862 3 31.1961 4.807 3.57942
1893 2 27.3396 6.01132 7.46755
1262 2 27.0728 4.9902 5.6233
1374 1 29.8124 7.57376 4.42891
66 3 21.4408 16.4616 17.5819
1383 2 29.4863 4.17313 7.01504
474 2 31.0801 4.39255 7.11494
923 1 29.6262 6.84486 8.08664
1775 3 31.2271 5.91169 4.51353
791 3 6.74363 10.3444 6.56582
1366 2 4.44612 12.3749 5.98768
1294 1 4.62682 10.6448 7.17944
1552 3 7.92766 10.8816 5.70029
680 1 5.91053 10.5563 4.56741
1435 2 6.2753 9.00551 6.18867
404 2 31.4174 9.91632 4.72221
1682 3 28.5163 4.1391 5.5912
1079 3 7.85814 9.25476 3.65031
271 2 10.7024 8.58188 4.71346
403 2 8.30022 8.23567 7.24155
1799 2 8.70015 12.3078 5.95356
293 2 8.27388 11.6623 4.2417
830 3 11.0437 9.72705 5.64127
84 2 11.8962 11.4528 7.20253
217 1 10.2953 10.0465 7.53232
1819 3 11.1178 11.9221 8.61618
836 3 11.5451 11.0284 5.77255
435 2 12.2128 12.2981 4.9628
1392 2 15.0086 8.46312 4.5013
729 3 16.9149 8.72384 7.15659
1332 1 14.3404 11.5169 7.86089
1686 1 12.8381 9.23708 5.20607
537 2 14.6053 11.0143 5.43169
1710 3 14.3483 9.88618 6.56647
1388 2 14.9826 11.6657 4.02234
1143 1 17.1812 12.1868 5.67004
997 2 15.8373 9.7232 7.16376
1795 2 16.481 8.858 4.84972
509 3 27.6199 13.9959 14.2784
1522 1 18.8126 8.14404 6.09917
364 3 22.1117 9.58461 5.34576
1520 2 19.2253 11.5503 5.92174
484 2 20.9236 8.4932 5.246
346 1 21.3519 12.4436 4.69398
1038 3 18.8127 11.6127 7.21798
1991 3 18.9939 11.8474 4.55597
138 1 20.8707 10.3115 7.24284
1519 3 21.7593 8.8462 8.25631
1936 3 29.1816 16.1688 13.39
1483 3 24.9632 8.84447 5.39913
1135 3 23.5927 13.2857 6.32433
90 2 25.3579 9.20637 3.74009
108 1 23.5974 10.6012 6.35437
1734 3 26.7076 9.79627 4.24445
933 1 25.5665 12.5766 5.1745
1561 3 25.363 10.5341 7.5256
727 3 25.2185 11.9072 7.1105
175 1 22.0886 12.4874 7.84282
757 3 24.2093 11.1979 8.30677
1394 2 28.32 8.70036 6.41819
1431 3 31.2391 9.07609 7.47292
492 2 26.8197 9.30797 5.80363
1176 3 31.3657 8.89296 5.78554
1211 1 28.7304 9.94425 4.98838
864 2 28.174 12.4159 3.90999
241 2 29.9725 9.48411 6.61521
46 2 29.7982 11.2809 5.97588
1724 1 27.3096 10.9871 7.40848
1500 3 29.8725 12.7027 6.22491
1234 2 28.244 12.4681 6.44409
1579 3 8.51302 17.4517 5.11832
744 2 4.72873 14.172 3.7038
897 3 4.45747 13.9521 5.30839
1049 1 6.50613 13.1359 5.09102
764 2 5.06228 15.0503 6.20828
1675 2 7.83018 16.0 4.53206
1727 2 4.71765 15.9236 7.69234
1881 1 8.15473 15.9479 7.09054
1930 3 7.9504 14.5266 5.4613
688 2 5.86692 17.064 7.59605
1197 2 10.1401 13.0714 6.87064
132 1 10.7645 16.8835 5.65621
1327 1 9.89735 13.7438 4.43245
704 1 4.04744 3.63465 15.2259
1429 1 12.1274 14.4717 6.54357
38 3 11.875 14.864 4.14781
373 2 10.3336 15.8408 7.84957
1412 3 10.1865 17.3556 7.80018
455 3 15.8835 13.0256 4.50439
1884 1 13.9972 14.6814 4.04576
1222 1 16.3306 15.1387 5.40646
628 2 15.0633 16.403 4.73994
872 3 16.1763 15.8296 7.61148
751 2 30.9914 15.1355 14.0349
458 2 17.581 16.4536 7.60558
273 2 16.1238 16.9808 3.74543
1257 3 13.7192 13.3533 8.23632
548 2 19.3431 15.4266 6.69076
1831 1 18.8087 14.1688 4.05114
890 2 19.378 16.7218 5.56167
914 3 28.1461 15.3782 16.7849
422 1 21.5936 15.7692 6.20707
1237 3 17.8539 16.2907 4.72509
1547 3 6.36948 14.0873 16.8882
1065 3 22.1632 13.7503 5.99459
873 3 27.0173 14.377 5.12046
626 1 23.5421 14.4263 4.24555
1562 2 22.7234 17.4059 7.33055
563 1 25.1885 14.2769 6.94877
111 2 23.4863 15.8167 7.24088
1125 2 26.0737 14.5896 4.29697
1923 2 31.4583 13.0865 7.32981
117 3 28.001 14.0108 5.99268
1593 1 30.5079 13.4716 4.51253
1144 3 28.6791 14.9902 6.49726
706 2 29.7915 15.5767 7.02336
1164 2 31.4755 14.8751 7.3646
526 3 31.1239 16.7205 14.0898
1482 1 31.4058 16.6172 5.62128
574 2 4.55261 6.2971 8.75809
1304 2 6.34646 7.09227 9.95317
1107 3 6.00723 5.82013 9.70505
471 2 6.39266 4.51841 10.0588
381 1 3.94645 5.10173 10.4781
1067 3 4.03326 5.05365 12.6469
1880 1 6.21483 5.87342 12.3813
775 3 7.06853 7.5614 11.1651
211 2 5.65572 8.35774 11.0032
327 2 7.54423 3.93191 8.31522
678 1 8.97269 5.4387 9.05475
1474 3 8.54048 6.57798 12.6185
570 2 11.0945 4.51475 9.30744
514 2 12.4691 5.24251 8.95404
91 1 11.1288 7.16689 11.1194
1838 2 8.41016 7.38153 11.1491
659 1 11.8608 4.11713 11.647
1248 3 12.5392 7.00692 9.11886
511 3 16.3243 6.26041 7.9146
611 2 13.4053 7.89927 10.0125
408 1 14.1063 3.56692 8.67978
299 1 13.9449 5.64846 10.883
1042 2 15.3731 4.06671 10.5284
283 2 15.8663 6.70036 10.1372
1153 3 16.1326 5.39721 10.782
1301 1 16.0696 4.7016 12.9377
1912 3 14.8389 7.50151 11.0239
1840 2 15.2795 7.75277 12.7853
371 2 18.7068 4.22773 11.937
141 2 19.7958 6.45103 10.6009
1116 1 17.6163 3.91673 10.1348
731 2 18.9037 5.7672 9.05416
667 1 18.4022 8.06318 8.94124
676 2 21.1147 6.36911 11.5008
1555 1 21.1056 4.80872 9.30733
1928 2 21.6216 6.86163 8.31032
1185 2 18.0398 5.48812 12.8156
823 2 25.8777 5.47329 8.30583
1597 3 24.1505 5.1163 12.5933
1626 2 23.8992 6.30252 9.58667
610 3 22.5329 6.46527 9.99076
691 1 23.3845 7.48124 11.7806
377 1 26.3696 6.74873 11.8107
1285 3 24.4617 4.0277 12.0257
1436 2 25.2885 5.60204 9.94235
869 1 27.5574 8.24912 9.31097
1053 2 27.2683 6.12283 9.79471
1595 3 28.8589 7.01821 10.2096
1340 2 30.085 6.11765 10.0846
1643 3 28.0368 5.08547 8.66299
892 1 30.8821 6.82537 11.9647
1528 3 28.8447 5.90841 12.7615
1702 1 28.8675 4.51401 10.4731
504 3 4.27144 8.66658 11.498
155 1 3.87818 9.07212 9.57523
1263 2 5.9995 11.6974 9.7924
1106 3 4.43126 12.2831 10.0135
1092 3 6.82 10.4521 10.1791
666 3 3.80492 11.0215 10.3552
1342 3 7.37605 12.707 10.075
96 3 8.26463 12.1144 10.8834
330 2 9.03163 8.24571 8.80108
943 2 9.7523 12.3487 8.27664
787 1 9.85466 11.5603 12.0727
1985 3 11.4032 9.93255 12.8835
584 2 11.1785 9.63686 11.2908
292 1 8.93599 9.90734 10.4328
335 3 10.5698 10.9391 9.56655
583 2 12.2884 10.1445 9.99689
636 1 13.8665 9.67878 11.6156
1137 3 13.9392 12.5562 12.5991
1015 3 13.0932 9.23549 9.18947
863 3 14.0574 11.7997 11.4096
649 2 16.398 11.0411 8.55064
752 1 16.0363 9.58602 10.1746
1302 1 17.1647 12.221 10.7374
1009 3 15.3814 10.9172 11.1698
1221 1 16.8865 9.44892 13.0282
1718 2 17.7656 11.9075 8.67443
1687 3 19.1101 7.67653 10.749
1256 2 19.5076 11.9883 8.43411
1196 3 18.4152 11.2618 11.9869
1527 3 17.9577 8.63133 10.8042
1121 3 20.7865 11.7689 9.53088
352 2 20.346 8.85802 8.95549
1902 1 19.5076 10.0545 10.3743
544 1 22.5887 11.8524 10.8328
1933 2 20.7686 8.44879 11.5375
1979 3 21.3577 9.95312 11.1522
1950 1 19.4979 12.7881 12.117
89 1 23.8013 8.7156 9.09527
437 2 25.9913 8.88981 7.76172
1602 3 23.2828 10.7289 9.43968
822 2 22.9047 9.81999 10.8656
1205 2 25.0011 8.44898 11.5625
1481 3 26.1068 10.2123 8.74903
1003 2 25.9964 9.71141 11.553
1220 1 25.8093 12.5287 9.89609
1261 2 25.3616 11.2748 11.6033
847 2 26.5684 12.7956 11.9911
74 1 29.973 11.6611 8.71055
955 3 30.9893 8.98444 11.8836
925 2 30.4909 10.4919 10.5883
985 1 29.1337 8.83546 11.5507
909 2 28.0172 12.8776 8.97004
1126 3 26.9319 10.8889 11.9626
732 2 28.5531 10.6873 12.251
405 1 5.58363 13.8758 8.62486
500 3 4.05768 13.6513 10.9743
349 3 7.57159 15.4565 9.7539
1746 1 7.43557 14.3445 11.398
1911 1 5.42307 17.1949 11.4655
1368 3 6.75065 16.5986 9.90338
1914 2 4.68964 14.5279 12.2647
1731 3 3.86557 16.6581 9.87056
1960 2 4.6243 15.1338 10.353
886 2 5.31726 16.9032 9.17549
3 1 12.6651 12.3332 9.83263
1861 1 8.19912 14.0109 8.39433
1403 3 8.73621 16.4773 12.8107
601 1 10.3841 14.8635 12.6845
1413 3 11.1121 16.0191 10.0375
828 3 11.3041 13.4419 11.3762
1351 2 11.6524 14.8339 10.9388
402 2 11.5675 15.2343 8.71141
1046 2 17.0656 16.6944 11.4355
799 1 15.0867 17.398 7.84593
421 3 16.12 13.4173 12.6323
486 3 13.0996 14.6863 8.69378
856 3 15.7536 15.4957 9.04542
721 3 15.0321 16.2873 10.1314
99 3 14.1103 17.3656 10.1616
416 1 14.411 15.275 11.8945
1451 1 17.4297 14.8512 12.9926
1683 1 29.3238 12.9288 14.7687
540 2 18.311 13.4827 9.00221
684 1 17.6998 15.8913 9.98848
988 3 18.3674 14.0101 10.7508
689 3 19.1835 15.5365 11.1251
935 1 20.3574 14.2373 9.32426
494 2 20.6751 15.6263 11.2801
1318 1 30.6412 12.6717 12.8022
1408 3 21.2832 14.0507 11.203
205 2 21.6886 16.4108 12.4927
850 3 23.5924 13.359 12.4035
164 3 23.4102 16.467 10.2683
470 2 22.3727 15.0952 8.59781
896 3 24.9636 13.0989 11.844
907 2 23.8178 15.1326 9.23775
94 1 23.0881 14.9211 11.4522
1458 3 24.5609 16.6875 11.3888
150 3 25.5519 15.5187 11.318
1509 3 26.6127 15.7167 10.4732
998 3 31.5087 13.4263 17.0235
165 2 27.9204 12.8593 10.6252
1546 3 31.4886 15.1819 9.02043
487 3 29.5801 15.0224 12.6424
848 1 29.5894 17.0014 9.04236
1487 1 29.7408 14.3095 10.3663
1789 2 27.5676 16.7821 10.0651
1018 1 27.525 14.8925 12.5047
453 2 26.8983 14.0899 15.5128
388 3 4.89793 4.3866 13.5396
1998 3 6.53764 7.16186 13.7738
1349 1 6.67139 4.78641 15.4083
92 2 7.66169 5.74845 17.2161
498 2 5.08629 5.12318 16.9096
1215 2 3.53713 6.13717 16.6415
1012 1 30.2273 16.0846 16.6128
297 3 9.2009 7.01083 13.7403
313 1 11.1799 6.17622 14.5962
1150 1 8.67218 7.48127 16.0519
1103 3 8.53042 5.05951 16.3563
1717 2 9.0813 4.52374 15.0194
1014 3 12.3392 5.28118 12.9363
1404 2 10.8135 8.02231 16.0336
842 2 28.9346 14.8771 14.3248
934 1 14.1425 4.84732 16.1738
43 2 13.6863 5.26426 13.3076
163 3 15.2311 6.58519 15.5785
835 2 14.7686 6.14115 14.4509
270 3 16.2881 7.41041 16.0239
1650 1 13.0041 8.1927 15.4481
1219 1 23.2695 8.93853 16.7969
1692 2 18.3501 3.75845 16.3388
1577 3 20.5565 6.66293 13.4068
834 2 19.6338 4.97063 13.5988
341 1 18.561 7.20174 14.4109
529 2 18.1089 7.84396 16.7516
899 2 18.0317 4.86713 14.6081
753 1 22.0777 4.64562 12.7807
568 2 20.1442 5.61694 14.998
1976 2 21.2297 6.62579 16.4367
29 1 18.906 5.65789 17.3531
1806 2 20.4587 8.29804 13.3389
1919 2 19.8106 7.69999 16.3418
1265 1 23.5578 14.845 15.1776
1177 3 24.4189 6.2369 13.4374
588 1 22.9761 6.88301 14.833
430 3 23.0961 6.56058 16.7461
1140 1 22.4051 4.76028 17.3034
1044 2 24.5861 7.64244 13.6765
179 2 25.3272 7.49829 15.5644
1460 2 24.7785 6.91831 16.8309
230 2 28.3624 5.54042 16.0226
1698 2 27.1292 6.80019 15.4874
1844 1 28.747 4.36101 14.1606
1365 2 29.1076 4.28824 17.0144
950 1 29.6913 6.58568 14.4091
348 3 29.9819 5.05821 15.915
107 3 3.80145 7.74497 15.6253
1300 3 5.45974 10.4407 17.1395
1260 1 7.74951 8.84212 13.0938
854 3 6.75688 10.5686 13.8161
1619 1 5.62724 7.28252 15.846
280 2 7.6393 9.58013 15.7104
1824 2 5.92565 10.2484 15.7259
1526 2 5.3642 11.4684 14.4552
1236 3 4.24776 12.2385 14.1992
1696 1 3.61181 11.2368 16.1948
1296 1 21.8688 13.2833 13.1334
1996 1 9.73845 11.6755 15.8147
379 3 9.08329 9.94506 15.0266
306 1 12.8488 11.4705 14.0942
673 1 10.366 8.48437 13.8309
902 2 10.7017 10.7852 14.0083
1721 2 10.0529 9.49209 16.6007
954 3 11.7536 8.86556 17.0289
1072 3 14.8361 9.22808 13.8501
698 2 14.9348 10.1537 17.1387
203 2 14.6218 10.531 14.6603
228 3 15.3166 10.8364 15.9651
1375 1 16.9095 9.30491 15.8573
1667 1 17.3451 12.3885 16.1776
1218 3 20.2069 11.8037 13.5508
436 2 18.8273 10.4331 13.0692
147 3 19.0626 9.05868 13.5433
1491 3 18.5967 10.6778 15.6046
1598 1 20.5769 10.3774 15.3771
1297 2 19.8472 12.3198 16.3516
1739 2 21.2703 8.44383 16.6115
520 2 21.9622 10.947 13.2289
1037 2 21.9373 9.17403 13.2452
1212 2 21.0761 13.0957 15.5777
482 2 18.9434 12.0876 14.7904
368 2 18.3972 10.4687 17.262
1668 1 23.9243 10.1354 13.1542
1957 2 25.3399 9.06341 14.7058
1791 3 25.2056 10.581 14.8396
889 1 23.1717 11.5073 16.2471
1128 1 26.063 10.0354 16.8447
1247 2 25.5003 11.6587 15.6389
765 2 25.3151 12.3609 17.0359
1807 2 30.7521 8.68073 13.3357
76 2 26.9224 12.2815 16.2562
1655 3 29.4562 11.6312 16.3449
1944 2 27.4022 8.39576 15.6805
1508 3 31.1798 8.35053 14.6112
532 3 27.919 9.63089 16.0353
243 1 29.5186 10.2684 14.7627
2000 3 29.3672 11.1872 13.1668
739 2 28.1024 11.0142 16.7924
913 3 7.10745 12.9463 17.4663
1467 2 4.45588 16.1462 13.2828
782 3 31.5118 14.7071 16.6977
1190 3 5.59009 16.5168 15.6892
406 1 5.8814 13.616 15.0976
534 2 4.89657 15.2054 16.3783
1920 3 5.73342 16.3286 14.3816
1892 2 5.94846 15.3405 13.2963
1149 3 8.92055 16.3029 16.588
633 1 25.7153 12.9396 14.0832
1070 3 27.1492 17.4951 8.81856
1036 1 7.90929 15.3433 14.5697
1480 3 13.1045 12.9977 15.6167
740 2 12.4007 16.5868 13.0018
780 3 9.80201 13.1261 13.8732
627 2 11.0814 13.3785 14.4763
1916 1 11.8315 14.4218 16.1089
295 1 19.5586 17.3354 12.3715
1391 3 8.72765 17.13 15.4421
1267 1 15.6043 17.2967 15.6796
602 2 14.2439 17.2599 17.0638
1076 2 13.5547 15.5538 14.1137
1445 2 13.345 16.5235 15.9523
1051 2 16.7475 17.035 13.6417
77 2 13.2559 17.236 14.3876
58 3 15.47 15.8284 13.725
1461 2 14.6947 13.1835 13.6174
52 1 26.9741 16.2016 14.8269
1313 3 14.1887 12.8066 15.0307
158 1 14.8373 14.6998 15.5993
878 3 19.3241 16.899 15.5422
1243 2 20.7229 16.9086 16.0157
795 1 19.8442 14.8147 16.8355
948 3 21.7757 15.9695 14.9252
15 3 18.5277 15.7584 15.6036
975 3 17.6339 14.2938 17.5251
104 2 17.922 14.4823 15.8588
12 3 17.8804 13.4644 14.7408
1645 2 25.9382 17.2294 16.5431
1011 1 25.8193 15.1159 17.486
682 3 22.2732 15.5084 13.6649
1576 3 24.4788 16.7114 16.7763
711 1 19.9953 3.83691 4.77519
1864 3 11.5989 17.47 12.0699
278 3 25.0555 17.4132 15.2403
126 1 26.1743 5.48616 17.3587
915 3 11.0934 10.0597 17.3041
995 3 29.9996 10.3892 16.9206
523 1 18.4422 9.85647 3.6737
1168 2 27.6277 16.7264 17.4408
1845 2 22.9827 3.78715 3.58631
1271 3 4.19765 7.00543 20.1196
1898 2 6.42705 6.63343 18.3736
1379 1 6.87459 7.02626 20.9811
939 2 4.66977 5.59319 20.8916
814 2 7.3987 5.41985 19.0098
1172 2 6.72453 3.7087 18.7537
1744 3 4.11013 4.67876 21.9138
1689 2 7.22731 8.08955 19.1112
916 2 5.10505 4.82654 18.6146
426 3 6.96724 4.18801 20.1119
1093 1 4.22895 7.70433 17.9376
722 1 6.26396 3.73818 21.7977
614 2 4.86825 7.53581 21.5398
255 3 11.1883 6.71928 19.9819
1833 2 9.88866 7.26281 20.5516
1756 2 8.8686 7.5267 22.0356
1102 2 12.323 7.56166 19.9013
1969 1 12.2155 6.41152 18.2757
399 1 9.33736 4.63132 18.3752
1591 1 10.8588 4.06084 21.1152
202 3 11.4159 4.25759 18.1639
238 3 15.1265 8.67507 19.8617
1475 2 15.1011 4.49632 18.6004
375 1 17.0616 4.92575 19.6402
1722 2 17.6423 6.60978 20.8466
56 3 14.222 5.78462 18.3507
1094 2 16.2983 3.70313 22.6979
1726 1 15.626 7.4425 17.9795
1032 2 19.7449 5.47193 20.0189
308 3 21.0189 5.01311 21.4044
794 2 21.7593 5.63891 19.2895
6 3 22.1671 7.14292 19.591
200 2 21.8201 4.06227 20.4773
1047 2 19.4934 3.60148 18.9967
394 3 18.8555 7.30474 21.6659
363 1 18.6317 3.89421 21.2467
37 1 20.0088 7.60634 19.9925
1590 2 21.2628 7.82241 18.2612
1462 1 22.7585 6.84735 21.4245
1536 3 15.205 3.73149 26.8116
49 3 23.1556 4.73297 20.3038
472 1 23.9123 6.69398 18.9576
1380 2 25.8849 6.73172 21.0197
1968 3 25.6439 5.87444 19.782
219 2 25.5658 4.19316 19.6881
1993 3 24.59 6.81895 21.5812
625 3 24.5146 4.09102 17.8526
929 1 31.253 5.42769 19.4657
772 1 28.0466 5.72564 19.9875
918 3 30.9049 7.50022 19.5316
807 3 29.9311 6.75638 20.65
1972 3 28.7186 6.97089 21.6587
778 3 27.6554 4.03485 17.6402
844 2 28.2552 3.78432 21.8843
1030 2 29.4596 3.78111 20.5517
10 2 29.8048 15.1371 30.4543
1764 3 8.39218 9.3417 18.2811
385 1 7.97329 9.69267 20.9812
1778 2 5.7812 8.90692 19.4373
1964 3 5.89343 9.02773 21.0048
755 2 5.10147 10.1009 18.483
579 3 5.20316 12.2798 21.6902
1747 1 3.71449 9.58439 20.1797
1800 2 3.82566 11.1287 22.0945
85 3 9.00972 11.6046 21.7951
1282 2 8.94809 8.25918 19.2034
790 1 11.3178 9.20391 20.807
961 2 9.86024 10.2168 19.2395
969 3 12.2665 11.4707 20.5007
1712 1 9.79149 12.4662 20.1679
1566 2 8.47854 12.6919 17.908
210 1 12.8106 10.3841 18.393
1539 2 23.8253 3.58619 24.1162
637 1 17.0928 8.47739 19.8783
266 2 13.2075 9.12693 21.997
174 1 15.2832 8.24683 22.3196
1087 2 13.6212 8.38963 20.5576
185 3 15.2117 12.4128 18.497
1551 1 14.2539 11.2718 21.4561
1913 2 15.3942 9.48657 18.5696
386 2 15.8812 11.018 19.3883
1656 2 17.0934 10.1869 18.5588
182 2 16.8418 9.68565 22.4217
301 2 15.5832 13.0186 22.3131
1158 1 17.5957 11.9979 21.218
1647 2 18.9424 9.9467 19.6151
831 2 18.8003 9.66008 21.4408
1635 2 18.759 11.4515 18.9528
1980 3 20.4299 9.4321 18.9696
1232 2 21.4589 10.57 18.2297
697 2 18.8706 12.8519 17.812
712 1 20.7019 10.9248 21.0175
1421 3 20.9254 9.18163 21.8666
282 2 19.4812 12.9002 22.1271
675 2 20.8336 12.8336 17.8005
640 3 21.8108 12.2022 18.9076
14 3 17.4567 8.84454 17.7392
1025 3 26.6281 8.36344 18.2858
811 2 25.0374 8.41286 18.312
996 2 24.4759 10.092 18.4523
396 3 25.1824 10.9635 20.9747
1743 2 24.8353 11.274 19.4837
528 2 22.8779 11.1535 18.7366
1389 1 26.0487 12.615 21.4603
1459 2 25.9733 8.26657 19.8658
1873 3 26.3188 9.78758 20.1737
1328 1 25.0809 9.40676 22.3996
953 1 23.0023 12.7509 22.1653
310 3 18.605 17.1425 28.7964
1516 1 28.4485 9.31431 18.6642
1745 2 27.4656 10.8254 19.946
1203 2 29.3762 11.0429 20.3449
8 1 26.6438 12.194 18.3852
1862 1 30.2329 12.2047 18.4541
644 2 30.5313 9.58192 18.2603
851 3 30.226 10.8722 22.0102
784 3 3.80535 10.6 31.483
95 1 28.1105 9.50986 21.6908
1213 1 5.01025 13.0677 18.0804
1319 1 14.8779 17.1914 28.0353
387 3 4.77875 13.0601 20.6793
152 2 4.05305 14.41 20.1983
1672 1 6.62799 15.9433 19.6049
362 3 6.88289 17.208 20.8256
672 2 3.66174 15.8866 19.5673
1823 2 12.7286 12.8332 20.5193
515 3 11.0529 14.0953 18.0016
244 3 8.73581 16.4294 19.3979
1961 2 27.3879 16.6253 29.078
843 2 7.89583 17.1086 21.9275
1338 3 8.87266 15.0718 19.8834
1533 3 11.6114 15.3874 18.1201
1167 1 10.9627 16.6919 19.8988
1043 2 10.776 14.1644 20.9622
1794 2 8.88977 14.4603 21.565
1818 1 8.49376 14.8034 17.8387
1411 3 11.5177 16.3861 22.22
287 2 11.8026 14.8502 22.1504
63 2 15.6068 13.123 19.9247
960 2 14.3249 13.6405 21.2565
1706 1 13.6573 13.8466 18.9108
976 3 14.2245 15.846 17.946
1774 3 14.4023 16.2966 19.4757
26 2 13.3774 17.5436 20.1829
1330 1 16.054 15.1854 20.9922
78 1 15.703 14.4586 18.2365
1716 2 18.2535 15.608 18.5539
1896 2 18.0236 13.5342 19.7598
1317 1 20.9018 13.734 20.0886
1239 3 18.8679 14.7497 19.7208
125 1 18.8315 16.4944 21.3249
1246 3 20.7724 17.0377 21.1235
397 2 21.5525 16.4599 19.1187
445 3 22.13 15.2938 20.0329
1390 2 25.9188 3.70647 25.1088
156 2 24.3143 13.0442 18.0315
1567 2 24.6059 16.5276 18.5993
1439 1 23.7067 14.0385 20.0251
1134 2 23.014 16.7641 20.8404
758 3 24.3322 16.4103 20.0381
1007 3 24.6306 13.8875 21.9017
1441 1 7.17322 10.8585 18.0824
687 2 28.3221 13.8633 21.7211
1418 3 29.1467 14.3823 20.7871
655 2 30.4817 14.75 20.5278
353 2 29.6306 16.669 19.9262
87 1 30.2615 13.0833 21.9396
1929 3 30.5671 3.67462 30.909
357 3 7.46397 6.11391 23.1764
1035 2 4.25603 5.77968 23.0174
1769 3 4.71573 4.74835 26.0942
481 1 6.96448 5.07729 25.0143
1019 3 4.37574 7.42587 22.8445
866 2 8.22849 7.29232 25.9158
1977 3 4.835 7.93374 26.2453
824 2 5.98409 4.99284 26.9381
1767 3 8.5846 5.70349 22.3609
1083 2 12.3401 5.44232 23.2008
530 2 29.8988 15.8894 27.2655
785 2 9.45026 4.86156 24.5521
1837 2 10.3733 3.67838 23.0033
1557 2 8.72635 4.20272 22.6012
281 1 12.1684 6.01127 25.5661
928 3 9.27716 6.10267 25.5175
225 1 10.0813 7.16556 23.659
279 3 10.1305 6.85814 26.4346
1971 2 13.22 8.0478 25.9409
1133 2 14.2496 5.59281 22.7753
1877 3 13.376 6.56901 23.3463
229 3 15.9484 6.48728 23.0083
660 1 17.1333 4.77996 24.1856
40 2 14.5159 6.91161 25.76
622 2 15.2299 5.41569 25.9133
594 2 15.7847 6.67409 24.7947
973 2 17.7622 6.83542 27.0207
1616 2 14.6083 4.04363 22.3578
204 3 17.2158 7.42133 25.5333
1633 1 14.0815 4.0604 25.1418
924 2 19.4741 4.05416 24.5115
1926 2 18.2769 6.12424 22.5376
1298 1 20.3832 6.39073 22.7191
585 2 18.4726 6.56074 25.4803
1324 2 20.6707 5.23365 24.4876
1293 3 21.8128 6.08972 24.2325
1291 1 20.2273 7.52398 25.0585
597 1 22.5988 3.9934 22.6058
972 1 24.9564 3.94696 22.0813
1945 1 23.8591 5.3513 25.2244
1277 3 26.0682 5.37653 25.4355
121 2 23.6379 7.66115 24.9779
1583 3 23.7423 7.07277 26.3487
1250 2 22.2491 7.5121 23.7888
478 1 25.8571 7.28029 25.9191
1021 1 31.4217 6.20903 24.6211
1122 1 27.4793 5.83588 23.4263
1596 1 30.1803 4.70172 22.3348
497 2 27.1118 3.63514 23.0801
1759 2 29.6343 7.69412 22.959
859 3 29.4923 6.10597 24.8898
1565 2 28.5159 7.40418 25.1692
100 2 30.6171 7.91977 26.858
1311 1 28.2376 5.16358 26.142
181 1 6.02986 7.6144 24.4643
1660 1 5.78884 10.4202 22.4382
428 3 8.05002 11.3394 22.6927
1805 1 7.26757 11.4739 24.5925
1210 3 5.46393 10.4288 24.7709
801 2 5.46468 9.58604 26.1132
1028 2 8.02741 9.35026 25.0434
1836 1 3.60372 9.37999 24.6586
1434 2 7.82217 9.82554 23.4291
86 1 5.41842 12.0094 26.271
616 2 9.83297 10.3424 22.5482
246 2 11.4606 8.09334 25.8723
1280 2 12.3439 8.88617 23.9693
1359 3 10.5464 11.9849 23.1347
1437 3 9.08578 8.97492 22.6849
45 3 11.0138 8.98768 24.7537
1673 1 9.74554 10.6156 25.1546
1410 2 10.635 12.5576 26.4903
432 1 11.9104 10.8224 22.6075
917 1 12.9019 10.4597 25.8166
401 2 12.5284 12.8621 25.5595
679 2 15.7848 11.1852 22.7864
315 3 13.4645 8.02058 23.7013
809 2 14.4809 8.29468 24.6082
1155 3 12.9427 11.8985 24.3915
444 3 17.3337 10.1143 24.5892
1963 1 14.8402 12.2282 24.4271
805 2 17.6113 11.186 23.4584
1385 2 16.6518 8.97991 25.491
109 2 17.0775 11.6632 25.4026
992 2 15.1822 11.8075 27.0667
734 2 13.7813 12.6996 26.4162
27 1 17.6921 7.681 23.6986
1762 3 20.9742 9.00661 26.3423
1175 2 20.9943 9.78612 25.0601
781 2 22.1228 11.1675 25.1252
103 2 20.2083 10.223 26.4214
1090 3 21.3507 11.7954 22.7657
316 1 19.6495 10.5052 23.5343
208 1 20.2227 12.602 25.5507
198 2 18.4853 11.3538 26.5794
180 2 18.3452 13.0744 26.3666
1096 1 22.5018 9.99702 23.5048
1156 3 21.78 8.22954 22.3781
1615 2 24.2887 12.4994 24.0932
550 3 23.0333 12.3947 24.8118
1815 2 24.9665 8.56039 24.3283
1041 3 25.3789 11.6129 25.3834
658 2 25.1179 10.1539 24.9976
1017 3 25.3751 9.3371 26.3559
1493 2 26.6449 7.99198 23.783
1225 1 26.4776 12.6295 24.2132
1377 3 27.6005 8.63932 24.8868
131 2 28.7968 11.9036 23.1442
1489 2 29.5901 10.5509 23.4525
1347 2 29.9025 12.0482 24.7741
1741 1 27.8353 10.6145 25.5314
1999 2 28.8978 8.90152 23.9392
1118 2 29.6587 9.53468 26.7415
645 2 28.445 12.9209 26.8245
207 2 31.1689 11.6425 26.3774
669 3 30.0983 10.6537 26.1837
1357 1 4.92453 13.244 23.7398
1853 3 6.48292 13.9645 24.6998
1115 2 5.78903 15.3027 24.8906
412 3 4.39052 16.7156 24.6593
1885 1 7.98922 14.6939 25.9141
1230 2 3.79033 16.0238 26.2238
475 1 8.3138 17.0909 24.4336
1684 2 10.7015 13.3293 22.3491
409 2 9.69843 13.3561 25.4108
1973 1 8.53025 13.7883 23.274
1594 3 8.26201 15.5983 22.6341
635 1 12.98 13.6157 23.148
260 2 10.5143 16.8624 25.3446
264 2 9.56263 16.1308 26.673
1606 1 11.7407 14.9506 26.2335
81 2 8.18747 17.1057 26.6725
22 1 12.6672 16.2357 24.4008
1829 2 16.1819 13.8462 24.5283
756 3 16.979 16.4388 22.8172
1336 2 14.5106 16.7298 25.4468
777 3 14.3736 15.2128 24.9959
360 2 14.8881 14.4468 23.6395
1894 2 16.2976 15.6499 24.0743
1948 3 16.9377 13.1559 25.6217
1254 2 14.4903 15.0422 26.6104
983 3 17.6624 15.1449 23.1187
1251 1 17.2219 15.1149 26.1711
1378 1 15.2233 17.4 23.3328
703 2 18.2688 14.001 22.4869
466 2 20.8585 13.3245 22.9759
545 1 21.9637 16.1266 22.7769
1600 2 20.4142 16.789 24.6887
1273 3 19.4171 16.7437 26.1726
1832 2 20.3803 14.3762 24.0703
1111 2 20.4902 14.9457 25.6082
1814 2 22.3628 16.09 25.6441
468 3 20.1028 14.1728 27.0159
347 1 24.5034 15.6995 22.2104
400 3 23.859 14.9255 23.7737
1348 1 23.9013 14.2824 25.7864
1816 3 25.144 13.6114 23.2494
1496 1 25.5433 16.6426 25.466
1651 3 26.018 16.862 23.0649
552 3 21.8632 14.0512 30.8996
921 1 22.0187 8.93193 30.9157
265 3 27.9537 13.031 22.873
1956 3 27.7196 13.4683 25.6425
1670 1 28.2202 16.1509 22.451
354 1 30.683 14.0473 26.1654
726 3 30.9152 13.3369 23.9305
981 1 30.6868 15.965 23.2118
1095 2 29.3711 15.1604 24.8639
1499 2 29.1919 13.5147 24.0854
569 2 27.589 16.5231 26.216
1109 3 28.828 15.5155 26.1885
590 1 6.393 7.65796 27.4313
275 2 6.10363 5.85773 28.2767
690 2 4.04344 7.27167 27.2844
1033 2 7.24181 4.9408 29.3504
1584 1 4.01544 4.80134 28.6248
1352 1 6.95039 6.95997 30.0014
483 2 6.36763 3.88473 28.5689
1364 2 4.85319 7.07465 29.0546
1797 2 6.37527 4.92244 30.9629
1549 2 10.6805 4.97561 28.4074
1574 1 8.46117 5.20576 27.5343
1903 3 10.5001 6.44069 29.0688
620 2 11.2597 6.80643 27.7934
1780 2 11.8218 4.04926 29.6083
1713 2 12.1406 5.83287 28.5183
700 1 11.1329 7.92659 30.3755
452 1 10.3655 4.6115 31.312
223 3 14.8075 4.5922 31.4796
178 2 16.1551 3.65634 28.0084
79 2 16.3491 5.52098 27.2244
263 1 13.7734 5.14354 29.8338
97 2 13.6898 6.90844 27.5563
883 3 13.9345 7.79346 28.6933
1209 3 16.7288 3.57812 29.4301
1440 1 17.1675 4.20679 31.353
124 2 19.2184 6.65776 27.441
941 1 21.0506 4.09254 30.1727
1303 1 18.0557 4.19609 28.0875
1148 3 21.2798 4.29008 27.7503
172 1 18.1517 6.83913 29.7895
762 2 20.0448 5.41063 28.0902
559 2 20.5732 6.61703 28.9985
990 3 20.9484 7.97061 29.3382
1785 1 20.6397 6.72403 31.4214
1188 2 30.3552 16.0486 29.0873
1075 3 24.4014 3.86075 27.7075
1906 2 24.0879 6.01102 31.3875
1803 1 25.2913 4.40475 30.891
20 2 22.9755 3.99658 28.6009
517 1 26.1882 4.27593 27.8733
464 2 26.3921 6.01932 29.5111
1855 3 25.285 6.44077 30.4889
222 3 24.3344 7.5284 27.5358
1245 1 22.9428 7.09139 28.8146
656 1 25.7505 8.15884 28.8068
1695 2 8.13755 3.85946 20.8895
1608 3 22.5599 6.09304 31.0615
910 1 28.7486 5.29661 30.9309
1988 2 30.4028 6.81105 28.1021
41 2 28.1832 5.85563 29.041
904 3 26.7742 6.24827 27.9612
1463 2 27.7638 8.46479 31.2736
1080 2 29.897 5.73769 29.3224
1865 1 28.7427 8.03527 28.0707
259 2 6.02538 10.1183 27.6584
425 1 6.99827 11.8387 29.2217
558 2 5.05759 9.93563 30.5645
759 2 5.83241 9.00403 29.4174
220 3 3.99966 11.1025 28.2042
1828 3 7.01113 11.3135 27.2712
206 2 3.89468 10.7208 29.7909
927 2 7.35864 10.6751 31.1598
1013 3 7.35117 8.96701 28.8635
1281 2 3.8958 12.3072 27.6737
1484 2 7.92364 12.745 31.03
605 2 10.6437 11.5482 27.6059
1609 3 8.68638 8.74745 28.9237
1581 2 9.40662 11.3573 28.4505
858 3 11.8575 11.3714 30.9025
1642 3 9.50192 9.35366 29.7169
502 1 9.8528 11.8964 30.3429
1603 1 10.4518 9.43693 28.0911
1900 2 8.64366 10.6303 27.1935
1339 2 12.537 10.2127 30.0661
1353 2 11.8008 12.7992 31.1048
1850 2 12.7784 8.83112 28.8046
1772 2 9.13672 9.16716 31.121
877 1 15.3601 8.71453 27.4158
1708 3 13.8618 11.4766 27.6864
457 2 15.0295 8.6533 29.9029
154 1 14.8591 11.1576 30.0552
696 2 12.83 10.5652 28.4645
42 2 15.8702 9.55657 31.362
1624 2 16.5145 8.76711 29.9854
300 3 17.1147 12.2042 29.7424
499 2 16.3678 12.4391 28.1209
1586 3 15.4667 12.8903 31.1949
786 1 21.4225 9.66497 28.3547
1663 2 19.7356 9.06242 29.4889
547 2 18.5651 11.991 31.09
1386 3 18.0128 9.00685 29.7024
1967 1 18.3647 10.622 28.7305
1621 2 19.9542 11.5382 30.0038
1117 2 21.6721 11.4998 30.2744
730 1 24.2893 11.1238 30.8152
524 1 24.2267 11.5966 27.4308
1974 3 22.5816 11.3212 28.509
13 3 25.4322 10.1118 27.8872
1750 2 24.4295 7.91169 31.0209
1981 3 26.4999 9.10906 27.1568
1468 3 29.0324 10.5749 27.8313
490 1 31.4141 8.23432 29.4978
1136 1 27.2514 10.6214 28.9023
788 2 29.1314 8.96324 30.2855
1589 2 27.2602 11.0034 31.2621
1231 2 27.6715 12.3397 30.2238
317 2 30.573 10.0458 30.8204
309 3 27.7282 8.70911 29.7198
134 1 29.8554 12.0785 28.7378
1537 2 4.04979 17.2346 30.1447
769 2 3.94757 15.3696 28.0408
503 1 6.1051 16.5924 26.9785
845 1 6.52451 15.0979 30.7748
800 3 7.0943 15.9035 29.0016
708 1 5.81247 14.1109 28.6246
743 3 7.56797 17.0558 28.1307
962 3 5.60284 13.1292 30.7609
1490 2 3.85296 15.3492 31.3051
1428 3 4.83931 16.4504 31.489
898 2 8.67302 15.1827 29.5714
695 1 12.1991 12.9846 28.5295
692 2 8.96042 17.2642 28.968
733 3 8.90582 13.6832 30.4675
1002 1 9.46726 13.3733 28.0071
728 3 10.6582 14.9576 27.8511
1654 2 10.8789 16.6662 28.1702
1199 1 10.982 14.9131 29.8985
413 3 13.4036 13.9449 27.1613
1131 2 13.2101 16.442 30.445
1299 2 14.8908 13.8994 29.5575
1498 2 13.5476 15.0317 28.4545
168 2 13.4296 14.4649 29.8941
1820 1 15.4424 16.007 29.7909
1786 3 16.8988 15.3911 28.1789
31 2 16.1393 14.0092 28.3709
161 3 17.4544 16.2662 28.9136
580 1 18.1847 16.6817 31.0776
551 1 21.1025 15.7957 30.5902
1878 3 19.0726 15.1297 30.2397
1495 1 20.1291 15.8853 27.884