# LAMMPS data file written by OVITO Basic 3.7.11
2000 atoms
3 atom types
3.2530286835 31.8128596575 xlo xhi
3.2530286835 31.8128596575 ylo yhi
3.2530286835 31.8128596575 zlo zhi

Masses
 
            1   10.81000000             # B
            2   12.01100000             # C
            3   47.86700000             # Ti

Atoms  # atomic

310 3 7.10248 7.15927 6.26794
1943 1 6.50575 5.22755 7.40818
27 2 4.58205 7.00111 4.18762
1201 3 4.94875 4.23096 7.16681
1617 3 4.33345 7.5892 5.76941
1948 2 3.87639 6.8987 6.95492
1405 2 5.72155 6.73068 5.42994
1983 3 7.3854 4.26439 5.62452
613 3 7.57353 4.65947 4.08236
1782 1 7.70361 7.23803 4.39427
1197 2 3.84572 5.2799 7.02114
1677 3 3.56773 8.11486 7.70418
649 3 11.4951 5.07934 3.75993
700 3 9.94803 4.61258 7.87007
506 1 8.93496 6.75676 7.09261
1706 2 12.4075 7.35742 5.63389
1211 1 11.7169 5.64423 7.42899
882 3 12.6286 3.62183 7.99957
1075 2 11.1723 6.78317 3.70446
806 2 12.2842 5.6807 5.39521
710 1 14.9935 5.29769 4.67409
895 3 13.4279 6.38323 5.58036
764 1 9.4997 4.62442 3.67281
1940 2 14.3001 8.87814 4.60752
406 1 20.6617 3.94441 3.40493
1845 3 16.6402 6.70155 3.67018
1057 2 17.968 4.58254 3.86907
594 3 18.0846 5.90506 6.17087
1374 2 19.0254 6.13473 3.34914
1046 3 18.2089 5.9207 4.65134
1918 2 21.5657 6.46645 3.55998
243 3 17.8775 5.38398 7.44602
826 3 21.362 5.02826 6.94284
79 3 21.3281 3.55206 7.04593
1155 3 22.1747 5.28972 4.83629
741 3 20.098 7.35714 3.68906
98 2 20.6068 7.47028 5.13883
1679 2 21.2678 8.02983 6.58053
920 2 3.56388 3.72723 6.61511
308 1 27.2364 3.66588 4.19591
773 2 23.1422 7.4064 8.58984
1663 1 23.9307 4.13724 6.26053
1525 1 25.6908 9.19821 8.57014
85 1 26.2817 5.9295 5.29148
1125 3 25.6847 4.13233 5.64371
1312 3 25.3274 7.9097 3.78565
1060 2 21.0528 6.01409 5.78867
771 3 22.4803 4.01597 4.64079
1223 1 27.6098 5.06093 8.54343
480 1 30.9701 6.54242 5.11259
848 1 30.4786 3.91314 5.35054
1851 3 30.8586 3.96633 7.50948
921 3 29.7221 4.97592 3.62311
1517 3 29.2097 6.29544 3.95902
1175 3 29.67 4.93155 7.62416
956 1 6.89454 11.0127 4.06866
1447 3 7.14975 8.35571 7.08654
656 2 7.41661 12.1033 6.13165
876 3 4.49119 11.3183 6.02996
242 3 4.94063 11.1004 4.76728
676 3 7.50329 10.608 5.94999
1323 3 7.76405 9.53702 6.87535
96 3 4.29772 11.3259 3.64791
1896 3 5.85567 12.6273 6.85252
1883 3 10.7833 7.95508 5.45295
1949 1 9.55672 10.0214 5.64477
1522 3 10.985 11.696 5.34289
1593 2 11.3281 11.9307 3.83247
414 2 11.7554 8.95278 6.6065
1371 3 8.45726 13.212 6.34039
421 3 9.6909 8.25561 4.63687
1648 2 10.1148 12.8613 5.50093
1054 3 13.203 8.76334 5.70405
646 1 16.8174 10.5298 6.93703
1627 3 15.7713 10.9462 4.79397
350 3 16.1977 9.7425 4.8768
1429 1 13.2106 11.3416 5.54365
1240 3 15.2861 9.7536 8.36922
790 3 13.9031 9.51353 8.3822
341 2 15.363 9.13553 3.59006
112 1 19.1381 11.5356 4.06173
1242 3 18.5666 12.0002 6.04428
529 3 20.2146 8.93591 3.42236
875 1 17.5829 8.28071 4.73598
1345 3 19.0396 9.65601 3.32173
434 2 20.0909 11.8948 6.03855
1351 2 19.3244 7.33268 6.48275
547 2 21.1693 10.8767 7.23384
550 3 17.867 12.3987 7.17636
482 2 25.979 8.62377 5.0805
359 2 22.8264 8.44454 7.21047
1795 1 21.9394 11.7348 4.92373
326 3 22.3294 9.93451 7.13088
1264 3 25.3488 9.09984 6.40784
368 2 24.0406 10.5181 6.62526
1373 3 26.0746 11.4819 4.85858
255 2 24.7239 10.8848 4.98949
993 2 24.3359 13.2877 6.50308
416 2 22.3533 14.0148 5.92178
1624 3 26.8281 9.3186 6.52155
299 3 27.0016 12.0797 4.19385
801 1 23.2437 8.53996 4.66598
1825 3 25.1574 12.5616 7.48245
42 2 9.79595 3.6535 12.6756
205 1 28.6357 8.18089 3.52953
872 1 31.3463 10.0897 6.7566
500 3 29.4826 12.3489 4.91096
1597 3 29.7018 8.66281 5.7237
258 2 30.3002 9.51653 4.55993
1230 1 28.6237 10.139 6.17766
717 2 30.172 11.1654 4.1111
1176 1 3.74611 12.9328 7.68784
1404 2 8.01529 12.9186 4.76334
193 2 8.29092 17.0339 6.81772
331 3 6.23525 15.3226 4.74995
832 3 7.43139 15.7181 3.94286
1293 3 4.86873 14.2992 4.56036
636 2 6.17063 16.8919 5.91268
1022 3 4.87931 13.7635 5.80926
1146 2 5.8117 15.4291 6.46821
133 3 25.6977 7.86469 16.9927
477 1 9.36634 14.9255 4.14384
1375 3 11.3814 15.5296 4.69509
958 2 10.463 14.4275 6.2548
1078 1 10.7295 16.9239 6.10288
1045 3 10.6012 15.0786 7.53886
6 1 13.4619 14.2205 5.86183
1724 1 9.7358 13.3472 7.78941
1588 2 12.2974 3.49978 6.57696
1472 2 15.0066 11.9473 4.22842
1310 1 12.7668 17.1758 3.93904
194 3 15.2551 15.5855 4.43047
345 3 14.5105 13.0941 4.63053
648 3 15.4161 14.0423 4.94654
441 2 14.7001 16.6645 7.08445
1646 1 16.4415 15.37 5.98952
1779 3 30.3238 15.4621 15.3726
1415 3 14.9311 15.1589 7.53366
1685 3 29.2032 15.4225 16.1924
520 3 20.5636 13.1832 5.54143
1660 3 26.1425 16.7482 6.25234
142 2 18.3532 16.6073 6.57064
704 1 19.3594 14.803 4.90226
1723 2 18.9763 14.5838 7.29895
1751 2 21.805 16.0584 4.67085
459 3 20.9022 15.3524 3.48988
1599 2 21.5197 16.3908 6.42089
1535 3 23.4814 13.0814 5.21779
673 1 23.7795 15.6148 6.85791
282 2 26.6655 15.3583 6.03143
437 2 24.9462 15.5258 4.24005
857 2 24.0368 14.2836 5.015
448 3 26.5133 14.6545 4.82824
929 3 27.371 13.433 4.95151
624 3 27.1468 16.7694 5.45661
1150 3 27.565 17.0382 4.09878
435 1 28.5957 12.9935 7.13422
1686 3 31.7015 17.3798 6.92626
1753 1 3.15344 15.7153 6.05854
936 1 31.7863 12.7376 4.52319
108 1 28.2049 16.457 7.44367
724 3 27.6047 14.4743 3.96402
1642 3 30.4757 16.786 7.17412
1763 2 28.3546 15.8079 3.66326
878 3 30.3614 13.4614 8.08682
1058 3 8.03326 3.27245 8.4065
1969 3 5.13271 3.61334 12.1348
1666 1 6.72626 3.45373 10.2039
156 3 6.87657 6.23679 11.1099
1695 1 3.67869 6.26584 12.0053
58 3 6.1059 6.32416 12.1874
1775 1 8.19548 7.90357 9.41118
825 1 3.82927 3.82223 9.01282
415 3 7.46849 5.60508 9.82966
903 3 5.88775 7.51758 12.7803
512 3 9.68495 3.60177 8.75427
489 3 10.1494 7.82482 8.72283
532 1 12.986 4.12874 11.6972
1544 2 8.67772 4.87691 9.02495
1468 1 8.92347 5.4398 11.6288
413 2 12.5867 6.14921 10.4167
1149 2 12.4393 4.67981 9.42417
82 2 17.1971 3.79667 12.7201
786 3 12.7272 6.48008 12.067
1166 3 14.6425 6.40387 8.70572
1890 3 13.3591 5.85535 8.83039
83 1 16.1208 5.03944 8.68989
332 3 15.6401 3.50095 10.2555
1570 1 15.0325 6.2437 10.9834
1047 3 17.1554 6.64172 10.2823
1547 2 14.619 4.13219 13.1256
1664 3 16.6765 5.93735 12.6719
1339 2 17.9095 6.44534 11.7773
630 3 18.6989 4.74212 8.44028
1064 3 19.9434 5.03652 8.872
647 2 21.1593 8.2158 8.36226
397 3 20.1751 8.10788 11.2828
1657 2 21.6129 4.6516 8.44528
1822 2 19.9253 3.35707 10.4425
1229 1 17.6845 4.20986 10.5934
1848 3 19.8922 4.61389 11.6513
561 1 19.4282 6.66543 10.1572
1331 3 19.7412 7.91333 8.07778
798 2 19.2197 7.42681 12.0206
1934 3 22.994 6.21639 9.27329
1836 3 26.147 3.82336 8.7177
396 3 22.6876 5.0341 9.44684
109 2 22.9632 4.57811 11.1668
765 1 24.9805 5.22863 10.1057
1727 3 25.8323 7.56874 9.80779
68 1 26.4113 3.08036 12.4108
111 3 23.5515 7.3566 12.5247
90 3 23.9063 8.16273 11.5859
131 2 21.1615 3.74209 11.8039
1030 3 26.8933 7.02011 9.25474
974 2 30.9235 5.62545 8.24841
292 3 31.2432 5.28724 10.1905
733 3 27.3765 4.31003 11.1591
696 3 28.0542 4.58774 12.482
866 1 27.7823 6.31952 11.5211
176 2 30.0765 5.69516 10.896
1439 3 29.9118 8.23173 11.8096
637 3 29.6969 6.97983 11.4015
918 2 31.318 8.60743 8.74877
1196 3 7.07035 10.0467 9.73914
1248 1 6.50378 10.6843 7.81469
1674 2 6.86684 12.983 11.3869
429 3 4.80633 13.4752 12.1118
517 3 5.55733 12.3583 12.2911
609 3 7.68699 9.57285 10.8037
18 3 5.73593 12.5549 8.38869
817 2 4.73623 8.38633 13.1529
1635 2 8.74452 12.5179 11.4828
1032 2 12.3983 9.95459 8.12039
20 2 11.0762 8.14464 7.70431
997 3 8.95735 9.27659 11.6346
718 3 9.8366 11.1354 8.04852
183 3 11.1907 11.0651 8.51469
627 2 8.79734 10.6047 13.0456
983 1 10.2765 10.9795 10.4432
433 2 9.87649 12.0006 12.6817
99 3 12.3948 10.4563 11.1105
238 1 10.1134 8.2495 12.3426
767 2 11.722 12.4711 12.4727
933 1 12.5871 12.482 7.74407
1482 1 16.1569 7.6699 8.66451
1808 2 13.9815 8.36064 11.775
103 3 13.1647 9.68418 11.6573
802 3 16.4654 11.3089 11.3882
1901 1 14.6208 11.4072 12.3904
315 2 17.0077 11.3094 10.021
1746 2 17.0368 12.5932 12.0428
1529 3 18.1951 10.4467 8.28748
1356 2 18.6239 8.67508 8.72619
560 3 20.8039 11.7484 8.57143
1616 3 18.9102 11.0873 9.32131
1226 2 20.1021 11.0499 9.9038
1101 3 20.6715 11.064 11.2732
1358 2 22.002 12.3443 10.9043
1583 1 22.1896 7.70109 10.537
150 1 23.524 11.7209 8.39298
232 2 25.0721 8.56333 10.6399
378 3 24.7794 10.1595 10.2156
241 3 24.7418 11.4496 10.4833
389 2 23.9929 12.7157 10.9423
886 1 23.9786 11.0097 12.105
827 3 26.3498 7.83006 12.1891
1715 2 30.7036 10.9635 8.88244
486 2 31.4492 8.72515 12.6589
162 3 3.36601 10.1283 9.30198
1536 2 27.4705 12.4962 12.4701
492 1 4.12964 11.248 11.0186
264 2 27.8995 11.4242 9.29783
1250 3 29.2012 11.0532 8.49099
714 3 27.9837 11.8563 11.1475
169 3 31.0767 11.2629 12.2242
1306 1 4.84247 13.8127 10.0761
928 1 4.72824 17.1555 8.35434
1740 3 6.19553 14.2325 8.56809
1957 3 5.4901 15.2756 7.94528
1116 3 6.79998 16.0118 11.4553
1387 3 6.60472 17.3168 10.8152
1273 3 8.44744 16.6527 8.16005
3 1 7.77164 15.7757 9.71931
1368 2 9.63981 13.1438 10.1909
454 2 9.58151 15.6954 8.69881
393 3 9.40678 14.519 9.79325
1442 1 10.2346 14.6128 11.8666
1981 3 9.34568 16.5733 11.9594
1027 3 10.8155 16.4512 12.4813
1716 3 12.9923 12.8502 11.417
891 2 14.6117 14.5015 10.2792
748 3 13.493 13.3902 10.2776
992 3 13.3228 14.14 9.16401
841 3 13.5813 14.4763 7.84922
1614 2 15.9579 15.0057 10.9693
1288 1 15.8087 16.5544 9.18966
1813 3 17.6596 16.3301 10.5044
464 1 14.052 17.5029 12.592
1636 3 18.4968 13.5944 8.15627
736 2 21.4453 15.7811 8.11293
252 2 21.0235 13.1662 8.44035
1289 2 17.5316 14.9695 11.4041
551 3 17.925 13.6591 11.8702
961 1 19.4885 12.8858 9.78613
138 1 21.4262 15.1441 10.2602
1302 3 20.6616 14.5349 8.07561
360 3 21.1591 16.6338 11.8469
1629 1 19.2369 17.2391 11.442
1441 2 26.7888 14.5987 7.70612
1923 2 25.8736 16.4043 8.25674
1662 3 25.6686 13.4774 8.62765
12 3 22.8028 13.1845 9.74961
177 1 24.4096 14.4189 9.77657
652 3 22.6616 16.088 8.8963
352 3 24.016 16.321 8.85166
1781 1 26.3565 16.1711 10.4169
759 2 23.4648 14.304 12.1731
899 3 24.5716 15.5006 11.5185
552 3 24.9161 17.1455 12.0253
777 2 22.6689 17.4518 5.08523
660 2 27.249 13.4031 8.77903
1493 2 28.6539 13.2923 11.6177
137 3 28.012 14.7229 8.42167
384 3 31.2228 13.8429 10.3994
658 3 31.1458 13.9816 9.04573
1900 3 28.9146 17.234 11.0078
1325 3 29.4777 16.4648 11.9611
908 1 29.5197 15.7317 9.82109
1887 1 31.3562 13.4074 12.511
59 2 3.33742 2.95519 16.588
645 1 7.70817 8.73611 14.1395
972 3 3.7045 4.32592 15.0973
809 3 7.47681 5.87009 15.7572
1137 1 5.64892 5.0874 14.1671
984 1 3.3486 7.58182 14.7969
1327 1 6.02519 6.99803 16.6111
797 2 4.89053 4.61183 16.694
653 2 11.6496 6.2198 13.1785
843 2 13.0608 17.4104 6.3052
800 3 8.71872 5.96595 16.3773
610 2 10.5702 5.06163 12.9166
163 2 8.55959 7.59699 15.92
286 3 12.0516 4.48445 15.5574
1320 3 9.35556 7.54165 14.3904
887 3 10.7173 4.07666 16.3612
1141 3 9.34873 4.70087 16.93
1212 2 11.5905 4.14341 14.2272
1903 2 11.1919 7.34337 14.3819
911 1 13.5646 6.06208 14.0938
511 3 14.2943 5.8491 16.453
199 2 12.6189 5.24519 16.6801
125 3 15.4644 5.5813 13.4127
952 3 8.51251 13.0276 3.45662
1276 1 16.014 7.37944 16.4257
1423 3 18.1113 6.7545 16.9535
1492 2 20.4647 4.41699 14.7148
1279 3 21.8303 7.92313 15.0464
970 2 21.3592 5.06832 16.3788
1200 3 19.4141 7.07363 13.7833
1462 1 18.3186 5.64661 14.5417
1577 2 20.9398 7.68201 13.9542
1600 2 19.6502 4.07993 13.1278
1202 3 21.431 3.92875 13.6309
401 3 25.4126 6.91932 15.9
165 2 22.0772 6.8839 16.3548
1837 3 27.6157 15.2595 15.8848
1852 2 24.1467 6.19237 15.3196
523 2 24.352 3.02169 14.0053
471 1 22.6288 5.54374 13.1683
1108 3 24.3171 4.75457 14.4496
1830 1 25.4986 6.39568 13.6328
120 2 25.946 4.25823 14.8461
1379 2 23.2394 5.7804 16.7584
1187 2 28.3591 3.98607 13.82
1772 1 30.8383 5.46633 17.5815
1365 3 30.171 6.48971 15.4138
964 1 29.468 6.0494 13.4731
469 2 31.2419 5.53327 14.4444
619 3 27.5152 7.96812 15.3689
1446 3 27.4801 5.30805 13.7419
1787 1 27.5086 5.85089 15.8976
483 2 28.0869 14.0026 12.9573
890 2 27.1115 8.77688 16.8318
729 1 16.2014 17.0539 3.78933
1988 1 29.4888 7.44259 16.8814
1805 2 6.0549 9.32778 17.271
869 1 4.56058 10.8198 14.2233
175 2 7.97304 10.9856 14.3392
713 3 5.11964 9.3418 15.9959
1985 3 8.63149 10.1885 15.6595
1749 1 4.70897 11.6642 16.8753
845 1 7.78318 12.9288 13.4423
439 2 3.95124 8.87904 17.0276
1019 3 3.59564 9.79925 15.6747
775 2 7.55752 8.95022 16.5305
913 2 9.27422 10.977 17.0885
1732 2 12.0042 8.55089 14.6881
611 3 10.7714 13.2277 13.3295
1919 2 10.4559 10.4958 13.1187
1282 3 11.423 9.85833 14.0551
428 3 4.32312 17.4658 4.71945
283 1 11.7025 11.6684 14.9712
640 2 10.2492 12.3633 17.0491
1738 2 3.64216 3.66332 3.60409
157 1 17.3916 10.8141 13.2488
1645 1 12.658 7.73784 16.3038
1790 2 14.2829 12.0413 15.6584
1127 3 13.1298 11.3068 16.4663
1700 3 14.7223 8.99478 15.712
723 3 26.7268 12.0256 17.3692
1895 3 15.0388 10.0776 15.0064
1978 2 15.4595 11.5595 14.5845
1315 1 17.6999 12.4106 15.2733
1014 2 20.4992 8.73855 12.5113
1488 2 21.5424 10.3906 12.035
187 1 20.0025 7.56487 16.1278
631 3 18.9444 10.2255 15.486
1048 3 19.1351 10.7951 14.0569
892 1 20.8938 10.7564 15.3837
926 3 21.9375 12.7595 16.8658
719 3 18.9838 10.8718 16.6807
81 3 22.0946 9.29411 16.5037
1173 3 21.9366 11.1703 13.3019
955 1 25.0454 9.3272 15.3587
468 3 22.7559 10.8899 14.4553
1025 1 22.996 9.13799 13.5615
1975 2 23.8855 11.5796 14.9095
755 3 24.9233 11.2668 15.941
174 2 25.7324 8.87471 13.1005
505 3 25.6588 10.7129 13.5546
501 3 26.7841 11.3159 13.1301
1435 1 27.0264 11.419 15.1012
1118 1 31.0704 16.4308 13.4603
987 2 25.3261 12.3155 17.0613
526 2 27.573 8.26272 12.7785
573 2 28.2845 9.06016 14.7181
796 2 28.9217 10.0751 16.5944
1904 3 28.0141 11.2938 17.2241
208 2 30.8918 10.1098 14.684
1483 3 29.4256 9.99443 15.1104
737 3 31.4823 10.2431 12.7377
1952 1 28.87 9.83793 12.6871
1783 2 4.38595 17.5274 15.6477
427 2 7.99806 15.8768 12.6496
623 3 4.49129 13.0875 15.5147
1266 3 5.00518 16.6585 14.5472
1810 3 3.71775 17.0725 17.029
1672 3 4.16964 14.0375 14.674
588 1 5.14943 15.5762 12.9375
54 3 7.24129 15.7847 17.0696
1754 1 12.3472 17.26 15.056
1628 2 10.1098 13.3828 14.9567
33 2 8.82671 14.5173 15.1862
424 1 8.90474 16.6412 16.2005
1377 3 12.0975 16.0947 12.7806
1479 3 11.0939 13.2466 16.1283
1164 3 8.0583 15.4509 14.243
793 2 11.4094 14.8467 16.5224
716 3 10.6399 15.7243 17.3945
211 3 24.1256 4.5662 17.2084
1304 3 13.2837 15.7797 13.4188
1097 2 15.3834 13.0489 15.5649
524 2 17.2533 16.6268 14.2543
1181 2 15.8997 17.5434 14.0026
1034 2 14.3823 16.4525 15.1285
1959 3 13.8794 16.5462 16.6568
1433 1 15.5964 14.4091 12.8841
1780 1 16.1944 15.4043 16.3729
1378 2 13.1595 15.3877 17.4406
1256 1 20.4571 15.3952 13.5112
821 3 19.6593 16.0229 17.5252
633 3 21.6221 13.934 16.464
513 3 18.3153 15.8176 13.5014
1880 3 17.5841 14.2136 17.3327
1413 3 18.0415 15.0756 16.3567
1683 2 18.9523 14.9575 15.0701
1581 3 19.8955 13.781 14.8913
1445 3 20.7371 13.073 15.7083
398 2 23.2279 16.2486 14.887
465 2 25.2919 13.2209 14.1784
1080 3 22.8582 17.1201 16.5497
1417 2 23.1362 14.7338 13.9032
784 3 26.6634 14.2023 14.0487
1927 1 6.01065 2.99743 3.94242
1879 3 24.1323 13.8562 14.4668
1076 1 23.5252 14.8703 16.4318
1039 3 25.2924 16.4517 15.5151
1265 1 24.9776 16.1052 13.5043
1206 2 26.2666 15.4986 16.1887
1889 2 30.4157 14.9297 17.1759
772 2 26.9269 14.1097 15.5416
228 2 27.7226 15.3275 13.97
115 2 28.906 15.5875 13.1219
167 2 31.4209 14.5391 14.5557
80 2 18.3401 5.14229 16.8072
554 1 11.7609 9.28435 3.65095
693 2 22.0903 10.0197 3.38542
235 2 14.2311 15.3857 3.20751
358 3 31.4814 6.77279 18.756
1411 3 4.23741 6.64953 19.9831
778 2 5.64727 3.5905 18.449
1526 2 27.2031 16.1063 28.7189
407 3 6.04927 4.6596 17.8915
1863 3 5.2812 3.78141 20.3925
959 1 5.70028 5.46242 19.6976
667 3 3.7103 6.37827 21.2051
1771 1 11.5215 6.59679 18.9912
1855 3 11.199 5.009 20.4871
253 3 10.6567 3.76252 20.9236
1421 3 12.539 4.8158 18.5071
445 2 13.4614 7.29485 20.6523
1427 3 13.68 5.94847 20.808
374 1 14.8825 4.35215 21.2653
1580 3 16.6588 6.43247 20.5591
1467 2 12.9886 4.84003 20.4271
1318 2 17.8821 7.15068 21.145
1163 1 15.2787 7.17477 19.2185
1504 3 17.4804 3.52721 21.7755
1765 2 18.2666 3.55191 28.1619
1319 3 18.5689 3.59713 19.0862
1366 2 21.3225 7.26112 22.1124
342 3 21.5883 6.63043 20.7805
1979 2 18.2314 3.31737 20.4982
1878 1 19.1238 5.55399 20.068
1816 3 18.9001 6.45181 18.1957
1714 1 20.2707 4.82485 18.2192
540 3 18.5168 3.79021 17.7832
685 3 22.4633 3.97138 21.9495
302 1 22.8555 5.02044 19.5987
1846 2 26.7129 4.59647 18.9609
1767 2 19.528 3.20206 28.952
29 2 25.2983 3.68355 18.4807
262 1 25.7539 4.07581 21.5932
515 1 22.9886 10.6766 17.788
1596 1 26.5125 6.76152 22.4441
1990 1 26.9925 6.78161 18.5616
197 3 26.4578 5.35928 20.3548
474 1 29.7905 6.24623 20.4398
1486 2 27.7149 4.7807 21.6348
195 2 29.113 4.43447 18.9569
1591 3 30.429 3.80519 19.4688
293 3 29.1047 5.24222 22.3605
546 3 28.8863 5.88494 18.3527
1569 3 30.065 15.6911 29.018
1049 3 31.7486 7.51273 17.5085
703 2 7.6167 9.491 18.1118
1113 3 4.88875 11.2426 19.3633
52 3 5.76403 9.84566 18.6369
1524 1 5.13221 8.24376 21.7219
518 1 6.48091 11.3149 21.0344
1818 2 3.36349 11.5388 19.3629
1987 3 7.97632 13.0764 20.4119
884 3 6.69666 9.34449 21.6472
858 3 4.80604 10.0456 22.845
1877 3 12.5386 9.51372 18.7329
1571 3 8.93608 8.92259 18.5513
1241 3 10.7607 8.86971 21.1471
466 2 11.5895 8.67861 19.9149
1114 1 11.2386 10.8202 20.3749
1407 2 13.7542 13.1977 18.9167
564 2 9.88516 8.45411 19.6635
1348 2 9.0126 12.4534 19.4333
1869 3 12.9271 11.9193 21.1464
1798 1 12.9872 9.40126 21.816
1298 3 14.3263 8.70828 20.659
849 1 13.6945 10.9452 19.72
1893 1 15.7313 9.45719 21.6516
147 2 17.1894 11.0849 18.4132
947 3 15.7891 10.4105 17.8415
998 3 15.8973 11.5562 21.2864
1733 2 17.5332 11.9036 21.3007
1305 3 17.9737 16.9661 30.9295
245 2 18.1059 9.0219 21.3846
1469 3 18.5647 10.8166 17.8856
725 3 19.4238 9.64153 20.7056
31 1 18.1678 8.22364 19.1558
207 2 20.8578 10.6012 20.9344
340 1 20.6686 11.9162 19.0825
735 3 21.8755 10.4128 19.7865
620 2 18.5603 10.7697 20.687
1186 3 17.457 9.07627 23.1951
443 3 21.9918 8.21535 17.4711
502 1 22.5855 8.0586 19.8957
1332 2 22.7155 11.798 19.9766
1801 3 26.6093 8.99717 21.6026
1364 2 24.5736 8.13961 17.9563
288 1 25.126 11.6904 19.4131
1633 3 24.712 9.49563 18.6672
1621 2 25.6918 9.51998 20.0729
244 2 26.2138 12.2741 21.6986
943 3 23.7077 11.1033 21.2991
1603 2 25.2524 8.67517 21.6654
740 3 31.4857 12.4083 18.2392
1531 3 30.5399 17.1477 23.9273
77 3 28.8307 8.30219 19.8506
846 3 31.2102 11.4859 20.5772
182 2 27.9445 9.03368 18.2679
549 3 29.7695 8.74727 20.8294
1219 2 27.1619 11.5579 18.6253
770 3 26.97 10.4785 19.6241
263 1 28.4735 10.6626 20.6403
1670 2 30.2504 9.67934 21.7851
385 2 30.2242 12.7416 20.7237
1103 1 4.25298 13.4692 20.1203
785 3 6.52105 13.3441 20.647
166 2 6.3664 15.4009 18.2342
10 1 7.32822 14.9404 21.2249
1036 3 3.80018 15.4305 20.5031
1701 3 5.02462 15.7883 20.6582
382 2 5.61079 16.7962 19.4028
1465 2 6.69455 16.9541 17.7387
1864 1 9.15419 14.6351 18.2038
1728 2 12.2059 13.2372 20.1253
1568 1 10.2575 13.9107 22.3072
722 2 10.3247 13.5591 19.8566
1126 3 8.17795 16.6757 22.5827
712 3 10.4226 16.7371 18.4704
132 1 14.4358 13.442 21.0755
281 2 15.4084 16.0296 19.9414
70 3 13.9501 14.1579 18.0825
1122 2 13.6653 16.5312 22.3974
687 2 15.4936 14.0258 18.7742
721 3 16.7178 15.15 20.0976
1354 3 27.8934 4.42736 18.1874
447 3 17.8492 15.6058 19.5
1966 2 18.6219 15.1527 18.1462
618 3 21.9742 12.8799 20.7709
1891 1 17.776 13.2297 19.1581
559 3 21.4625 14.0992 20.1388
383 3 20.144 14.4532 20.2835
1409 3 19.3359 14.2728 21.3801
223 1 21.2625 15.3311 18.3066
1576 1 19.1163 17.3675 22.5303
871 3 14.9832 5.95877 17.4939
250 3 24.8068 13.5783 18.0921
1205 2 24.6412 15.8463 18.6775
781 3 23.6865 16.8009 21.1342
219 1 23.9282 14.0887 20.1344
349 3 24.564 16.5073 20.0446
1252 3 25.5824 13.2725 20.8942
444 3 26.3576 16.1482 22.1895
541 2 25.5103 14.9533 17.7038
1719 2 25.7408 14.533 21.4622
1217 2 30.6497 13.9965 20.6429
422 1 29.8518 15.7967 19.2695
682 3 27.5445 17.0577 21.5701
87 3 28.0409 14.7641 19.8712
664 2 29.0689 13.6898 19.8895
1094 2 27.4386 15.6725 20.8948
1287 3 22.7483 16.2655 17.7647
1235 3 31.4515 16.4764 17.7986
71 2 30.8815 13.5887 17.716
390 3 4.56362 4.65922 26.2161
63 1 6.24455 6.551 25.4744
1667 2 7.49415 5.16318 23.9352
697 3 5.92265 5.00185 24.1484
1906 2 4.90448 4.48852 24.9175
1154 2 8.0456 5.96674 28.24
1185 2 10.1113 6.96477 23.425
1821 1 9.7911 5.17508 21.9817
897 2 12.9881 6.38925 23.2329
1914 3 11.4129 6.18992 23.2572
1650 1 3.77755 15.4052 28.522
691 1 9.1745 5.89939 25.1888
1142 2 9.75566 7.85375 26.5286
1128 3 12.2557 4.03461 26.3471
1693 3 11.2763 4.81547 25.5753
1832 3 8.30176 7.01425 26.8495
638 2 11.6882 4.66946 23.8217
1485 2 15.7642 6.69881 23.5173
1829 3 16.9435 5.75858 22.8551
1676 2 17.5364 4.28804 26.6706
978 1 13.9923 4.88028 24.4697
823 3 14.2766 6.78216 23.7097
276 3 14.9606 7.03563 24.9834
592 3 14.5182 7.69627 26.1662
1530 3 14.1528 7.61086 27.4065
1797 3 13.4755 4.12687 27.1126
973 3 17.989 4.86673 22.6891
1713 1 19.5048 3.10836 22.2351
1431 3 19.3295 5.22093 22.4219
1747 2 20.3913 5.9093 23.1719
1466 1 20.9496 4.44534 26.1889
1745 1 18.4792 7.06182 23.1321
1748 2 21.6585 6.01648 23.9421
24 1 22.6653 7.49994 26.4149
935 3 18.1832 7.04065 26.3165
885 3 22.232 5.45376 27.2305
78 3 30.0546 15.9688 31.7702
760 2 21.7617 4.49617 23.3655
1082 1 23.2938 7.76255 23.013
1944 3 23.5124 6.00837 24.3135
753 1 25.2533 5.94704 25.165
791 3 24.571 7.07543 26.8114
338 3 26.0818 4.86375 23.4787
215 3 30.3166 7.38688 26.1475
1494 1 31.6822 5.86869 25.9051
995 3 27.2588 3.62072 23.4182
1159 3 26.9989 6.41689 25.9512
1545 3 31.4795 6.69989 22.211
333 3 30.1735 6.31951 22.8961
1541 2 27.9052 5.43016 26.3125
1357 2 29.1015 4.48234 26.4717
289 1 29.4109 4.53579 24.3456
1157 1 31.0232 7.88014 24.0057
117 1 26.7053 3.9686 25.564
1843 2 6.37955 9.94126 22.773
586 3 4.22241 8.02822 24.7776
1702 3 8.16442 11.6928 22.8399
751 2 4.34232 9.24729 23.8949
932 3 5.89521 11.354 25.6154
1898 3 3.78928 11.8037 26.6697
1655 3 4.55043 11.6418 25.4485
354 2 7.41562 10.5314 23.9633
1606 3 7.18993 11.2761 25.4811
218 1 6.22291 9.24559 26.2371
294 2 4.09072 12.3126 24.3143
301 1 8.7987 9.12471 22.1087
980 3 9.71682 7.97083 24.1412
1680 2 9.78244 11.4921 22.2508
1396 3 10.6197 11.6264 23.8433
1161 1 12.6323 12.2913 22.8633
229 2 9.70668 9.41987 24.3512
1285 2 11.7166 11.7031 25.4552
986 3 10.501 10.7421 24.9117
1074 2 9.74707 9.7457 26.3051
680 2 8.13395 11.9916 26.5949
1021 3 10.7657 8.72163 27.2195
813 2 14.0988 10.1701 25.0544
1459 3 14.3984 10.3046 23.6984
1503 3 13.0376 12.5437 25.0106
694 2 14.869 10.0741 26.5
1743 2 14.4756 11.9223 24.9715
951 2 14.8077 11.9054 22.3693
472 1 16.8401 11.2301 23.2679
236 1 16.1763 9.01574 24.723
659 3 21.5527 8.65253 22.3514
1370 2 18.1815 8.5348 25.8949
306 3 18.6906 10.1573 23.6946
1945 3 18.5078 8.99976 24.542
271 1 18.8629 11.0834 25.9364
1461 1 19.8333 11.9665 22.762
198 2 21.2257 10.1371 22.4345
1330 3 20.1582 12.2068 24.9536
1251 2 24.4719 11.2186 22.6793
1269 3 22.7908 10.479 25.2853
1755 3 22.6571 9.44676 26.1586
1037 2 24.1262 9.65938 21.25
672 1 24.8321 9.33182 26.5656
738 2 24.0096 11.301 24.3829
963 3 25.2703 12.021 25.2516
988 3 25.1289 11.5625 26.4091
1059 2 26.0467 7.43102 26.83
1474 3 27.4443 12.0432 22.5671
179 3 26.6147 9.47335 26.0585
1290 1 3.60874 11.622 22.3898
538 2 28.2438 10.486 25.4614
1917 1 26.5411 10.5199 23.8664
1109 3 28.9849 9.89689 24.2961
45 3 29.7158 10.017 23.2326
1204 3 28.624 11.6829 26.4128
372 2 4.47067 17.6681 23.5647
1024 2 5.14426 16.3996 25.034
915 1 7.41443 13.3171 23.5182
1460 3 4.87985 15.4537 24.0828
1703 3 6.19917 14.9201 24.9955
240 1 6.32876 16.0128 26.9251
752 2 7.56849 15.2511 24.5157
868 1 3.6039 15.3783 22.4375
1294 3 31.0068 16.9871 27.048
1933 3 9.05895 15.5041 22.8825
726 3 9.05578 14.3432 23.776
337 2 8.83271 14.2348 25.4562
1314 2 10.4393 14.4956 26.2576
213 3 11.3702 15.4191 25.853
1699 3 8.83602 13.3708 26.7313
1514 3 12.1063 16.3591 26.2938
110 3 31.5541 15.5862 31.46
996 3 18.0738 16.4815 24.9804
782 3 14.3195 15.3355 22.7492
1833 2 12.6205 16.9637 23.7612
1313 1 17.1716 14.4352 21.9733
1911 1 12.9855 14.1139 27.1541
1543 3 15.2883 14.3825 22.8776
1922 2 15.689 13.1005 23.7953
665 3 15.8908 14.0404 25.1497
925 1 14.3021 15.6305 25.3669
1928 3 16.6164 16.4697 24.9137
556 3 15.5563 13.8946 26.4307
585 2 30.893 16.066 30.2508
93 3 19.5524 14.3334 22.9271
225 3 20.8289 13.7238 22.9844
907 3 19.544 12.901 26.0578
105 2 20.5339 14.0548 26.6743
1353 3 18.1546 12.8681 26.7185
11 1 20.1336 15.3412 24.5539
1112 1 22.1159 12.3913 24.6543
339 3 21.9147 16.8208 26.3629
507 2 21.8366 12.778 22.4508
1408 1 26.2807 13.3809 23.8414
135 1 24.8032 16.3193 23.2048
1335 2 22.275 14.455 24.0585
1347 2 26.0746 14.4537 26.1458
155 2 23.5905 15.1515 24.8714
1158 3 24.8169 15.0629 25.5921
412 3 22.4673 15.9741 24.143
140 1 24.6006 13.3804 27.1117
1050 3 22.6787 12.984 26.925
88 1 27.3862 16.1705 24.954
1270 3 28.454 13.0356 23.0191
1449 3 27.1195 15.2225 23.3051
1984 3 29.4769 13.4701 23.0853
1528 2 27.7571 14.1316 26.3799
1737 2 29.1643 13.0022 26.6126
322 2 3.3899 12.9936 27.6945
1189 3 3.40422 13.5507 24.1174
1070 1 31.7929 14.8498 25.8869
387 3 30.579 13.6642 27.1943
699 2 30.5895 14.2018 23.758
606 3 31.3599 17.0546 23.0093
139 2 3.74852 5.46749 31.8592
1487 2 4.52176 6.89261 27.6091
1380 2 9.42276 4.31121 28.3694
196 3 5.02585 5.70573 27.2734
265 2 3.92693 6.9896 31.2584
1870 3 5.55576 8.43668 28.0454
607 3 4.23464 3.70259 30.542
1770 1 7.90178 7.61294 30.0232
747 3 4.95521 8.11928 31.52
1915 3 7.68901 5.26185 31.1563
514 2 7.34112 7.59927 27.9598
1117 3 8.97649 12.168 17.8913
654 3 8.19696 4.63941 27.3276
1768 1 10.7582 6.19932 30.1121
418 1 12.3057 6.30036 26.8159
1651 3 9.12899 4.76839 29.9131
1828 1 16.5323 3.74463 23.8407
1419 2 9.73959 7.51105 31.5649
1180 1 28.6918 17.0389 29.9508
1847 2 14.0961 4.03912 30.9723
975 2 17.3541 5.95365 27.3426
632 2 12.8977 5.48506 28.673
889 2 13.8456 7.1239 28.7478
450 3 12.8472 4.19965 29.8404
1653 2 13.9254 3.96594 28.4773
568 2 15.6018 4.13276 31.1518
442 3 15.5525 3.29175 28.554
1140 1 15.37 5.48976 26.9257
1520 3 14.3783 6.82184 30.0143
1739 3 17.2114 7.54718 31.2789
1652 2 20.0212 4.62699 29.8015
1475 3 20.7168 7.78005 27.0361
1534 1 14.575 3.60744 18.4016
1257 1 17.4713 4.7007 29.577
1608 3 20.7213 6.12845 29.6821
864 2 29.7423 16.0074 27.5373
930 3 18.9252 6.58815 27.3011
1391 2 21.7047 4.65772 30.131
1004 2 19.4977 6.55257 30.4113
1500 2 19.1892 6.02041 28.5979
481 2 21.2678 5.12932 28.6911
1179 2 17.5364 7.16914 29.915
1912 1 25.5954 10.5752 31.0758
1932 2 23.4542 6.07784 27.7503
768 3 22.8163 7.25043 31.5374
26 2 25.0854 4.00888 29.5375
1862 3 23.9948 6.56049 29.0823
259 2 24.1423 6.63454 30.6153
1261 3 26.0365 5.34251 31.8909
1518 3 19.0419 17.3735 24.6113
222 2 25.2998 6.20933 28.2397
1788 3 25.8951 4.31805 30.6551
1091 3 26.7756 5.32249 27.2238
950 2 26.9626 6.62099 28.606
39 1 30.7772 4.34319 30.3916
21 3 27.1896 3.62805 30.5076
1463 3 28.5615 4.02198 29.8842
839 2 29.7931 4.49692 28.1944
1145 1 27.9571 5.47583 30.8143
1124 3 30.7489 5.52144 28.6312
1612 2 29.544 5.98404 27.4288
1953 3 28.4473 7.43046 29.898
239 1 31.0555 7.43892 29.0023
1430 1 3.77195 8.52224 26.5045
363 3 7.09954 8.91616 28.6009
629 3 6.23689 7.83582 31.1746
1584 1 5.23538 10.8137 28.7013
1540 3 6.66674 11.3958 30.509
650 3 8.97834 10.8644 26.9717
1519 3 11.314 11.6974 30.922
121 2 10.5409 7.77916 28.9718
172 2 7.8026 12.1158 29.8916
1410 1 9.05354 10.1677 28.9489
803 1 10.4952 12.0067 27.1396
1708 2 10.2197 8.77089 30.5092
1811 3 11.6288 8.88604 29.8629
1388 2 11.0849 11.7947 29.369
453 1 16.0773 12.2204 26.9365
1220 2 15.0757 10.7032 27.883
1207 2 14.6311 8.51116 30.8363
1106 3 16.0753 10.5838 28.992
1604 3 15.4824 10.0839 30.4717
804 1 12.4289 9.33106 27.9791
101 3 17.4981 9.67893 28.5243
1954 1 15.0098 12.2491 29.7396
62 1 17.6568 9.24278 30.5669
92 1 21.8655 11.0122 27.2417
1995 3 18.1903 10.0733 27.4353
896 3 19.9467 10.1253 27.6889
1481 3 20.6217 9.03541 27.6783
158 3 20.5326 12.8008 30.4496
1035 1 20.5302 10.3147 29.8239
1665 3 17.9809 13.5131 31.3647
400 3 20.7756 11.9814 31.6165
1210 2 27.0044 8.61744 27.7487
1659 1 23.6111 8.99764 30.702
376 2 15.5884 17.2383 24.4168
1710 1 26.5125 11.7945 28.453
1548 2 23.3734 10.8339 29.7665
1623 2 24.7753 9.88284 29.0532
1963 3 25.9151 9.18342 28.6831
1853 1 28.3238 11.0241 31.4688
1216 2 3.1825 10.8134 27.531
1668 3 27.7557 12.8639 29.7851
1960 1 31.4648 11.5656 30.8109
1925 3 31.7672 10.1741 28.7942
1071 1 29.7781 9.82395 28.2662
1028 3 29.1262 8.76337 30.2373
1143 2 28.898 12.0939 29.3393
1964 1 28.6709 8.18522 26.4126
1457 1 4.958 16.3118 31.9183
457 2 4.68018 14.6689 30.3905
1913 2 4.75662 14.0409 26.9887
1892 3 4.72783 13.0795 29.9295
1678 3 4.85055 13.3333 28.4072
1051 2 6.76654 17.1706 29.3331
1031 2 4.85691 17.3072 28.935
1160 1 7.12128 13.3655 28.4083
787 1 6.18137 13.6266 31.6251
853 1 8.89597 15.1149 27.454
1308 1 9.64164 13.2881 30.5438
1602 3 11.8838 13.2217 29.0069
558 3 7.62687 14.7668 30.3142
300 1 10.5789 16.237 30.1875
210 3 8.82557 14.9163 29.4457
1450 2 7.6335 16.1084 30.8565
1730 2 10.7544 14.7743 28.4413
1267 3 14.9035 16.8648 18.8432
614 3 16.479 13.1506 31.5875
763 3 13.2562 13.5321 29.3284
1477 3 13.1739 16.737 30.0208