# LAMMPS data file written by OVITO Basic 3.7.11
2000 atoms
3 atom types
3.0161927212 32.0496956198 xlo xhi
3.0161927212 32.0496956198 ylo yhi
3.0161927212 32.0496956198 zlo zhi

Masses
 
            1   47.86700000             # Ti
            2   12.01100000             # C
            3   10.81000000             # B
 
Atoms  # atomic

654 1 5.2569 3.89052 4.4891
580 3 4.06791 4.06539 7.14164
1901 2 3.6573 5.69342 7.76713
472 2 31.5234 13.6655 17.3873
1176 2 3.98374 6.91027 4.73457
243 3 7.00854 4.90753 3.41224
1050 1 5.9424 8.17537 4.90244
1892 1 5.7571 7.07731 7.04635
1964 2 6.92884 3.32735 8.34018
801 3 4.80277 17.3934 6.18853
905 1 8.47616 5.24869 4.63197
1115 1 12.3915 6.05731 7.31182
576 1 11.1466 6.01381 4.80897
1059 3 11.6109 4.04881 7.81243
1884 2 12.1827 4.19809 6.3283
1727 2 10.5584 4.01327 4.30656
901 1 9.96318 3.04648 13.0575
608 1 9.65288 4.00428 7.24745
1846 2 9.4417 7.41876 3.91001
753 3 12.1682 7.4509 5.9993
1227 2 12.2659 3.43485 4.84776
1125 1 15.0458 4.9015 4.55832
549 1 16.7848 6.15017 6.42578
1817 3 15.7878 4.47994 6.69364
1722 3 14.5133 5.41108 7.21657
597 1 17.2279 3.22735 5.04588
1252 1 14.3846 7.81329 5.7741
927 3 16.2927 6.91447 4.5516
36 2 13.0126 6.23292 3.42415
1376 1 19.6652 6.47757 4.87542
1519 3 18.5865 7.16325 6.85388
23 3 20.1781 4.59538 4.90565
42 1 19.4918 3.18347 7.55939
1522 2 19.9253 6.58939 7.13462
1074 1 22.1804 6.14831 8.04865
660 1 22.1938 5.67163 4.93815
1352 3 23.4293 6.7135 6.35728
1813 2 27.9797 4.91477 4.23421
1878 1 24.4219 4.97273 7.48863
1927 3 25.4213 7.82168 3.41163
613 1 26.5045 6.62728 6.24337
1047 1 25.5029 5.17064 3.97932
1149 1 25.7597 3.06561 5.78415
1879 3 25.7404 3.51944 7.87378
66 2 5.05293 15.2572 4.24261
1555 1 23.6584 7.72646 4.76252
557 2 23.2847 3.26349 5.84968
404 2 6.2018 6.13278 3.79414
90 2 31.7752 4.12101 4.06065
1436 1 29.9192 4.69623 5.28279
1748 2 29.0016 6.68045 5.81159
1717 2 29.3814 6.00305 7.25618
1752 1 27.5963 6.94295 3.48368
1366 1 30.5257 4.51227 8.42747
1446 1 31.1358 7.22949 6.70438
439 1 28.1088 4.35885 6.84973
469 2 31.8562 3.00932 16.6813
1484 1 5.34935 10.8505 3.40187
514 1 7.56514 9.22662 7.26859
475 3 4.16656 9.7266 4.49454
1617 1 4.6975 10.106 6.71091
1747 1 7.14688 11.8419 6.10598
896 2 3.82254 8.17549 5.67711
784 3 3.32918 12.2393 6.17575
1699 3 5.85158 12.5382 4.50928
10 2 8.16381 7.32313 5.63701
1686 1 10.3471 8.40652 6.04897
664 2 9.21661 10.5655 5.65018
257 1 8.1675 9.70396 3.91681
1236 2 9.49523 11.2717 4.12814
1890 1 11.1497 11.8848 5.5949
1932 3 11.6412 10.0811 6.18656
1918 1 29.2879 17.3206 9.53719
435 1 11.8971 8.75997 4.54434
168 1 12.9844 8.92399 7.84687
1014 2 10.5695 12.6727 7.42645
397 3 13.6322 8.94513 3.67438
1218 2 13.0879 10.4299 5.564
1110 1 15.1665 10.7698 4.37567
432 2 14.5695 10.1725 6.36402
1220 2 13.6563 12.2228 5.74535
805 3 15.8756 12.8496 3.71025
988 1 15.7999 8.72014 8.1326
561 2 16.9508 11.999 4.30163
161 1 15.3784 12.1695 7.16824
1021 1 17.6417 8.54454 5.12389
1695 2 17.4311 10.2154 7.502
1613 3 19.3782 8.85079 4.04159
947 2 16.8186 10.7559 5.81063
969 1 21.378 8.97461 3.88704
847 1 18.8419 10.8543 5.41715
720 2 17.5711 11.893 7.11189
1603 3 20.4013 10.2237 7.61939
141 1 20.5659 12.5575 6.761
1374 1 21.8758 11.853 3.90395
83 1 21.3793 8.38366 6.98653
342 1 22.8707 10.9609 7.02037
1337 1 25.8945 9.11259 4.79437
1284 3 25.7786 11.0848 5.45939
492 1 24.9756 11.6896 7.09186
1791 2 26.1507 9.29772 7.0825
879 1 26.9796 11.5574 3.84933
786 1 24.4689 12.6739 4.58894
1541 1 31.6251 7.90141 3.70377
1392 1 31.6763 10.9311 4.5945
683 1 28.9737 9.05302 4.9279
739 1 27.6025 11.3592 7.22079
1578 3 30.1769 10.5756 6.14205
241 3 27.7164 9.0408 3.48829
825 3 30.2384 9.41548 7.10306
568 1 28.4785 7.89584 7.60135
1294 1 5.68055 15.5948 6.01428
331 1 4.74308 13.5777 6.04711
504 1 4.13348 13.5885 3.39081
1650 2 16.304 3.39112 13.2352
1061 2 6.59065 14.1137 7.03544
1799 1 6.95691 13.8986 3.35453
1080 1 3.04263 16.0828 5.16813
629 2 5.49475 14.2683 8.16279
888 2 32.0818 5.53301 5.12807
236 1 13.88 3.08911 6.94825
1513 1 9.75755 13.3034 3.71473
804 2 7.96966 16.3764 3.92066
270 3 8.28945 16.2836 6.55558
13 1 8.77469 14.3438 6.24854
151 2 11.0787 13.8723 6.03132
709 3 8.86437 15.2449 3.55734
285 3 10.7384 15.1023 6.77429
268 2 9.84338 16.1257 7.27162
466 1 11.8382 17.2162 7.00985
1437 1 9.58983 16.9344 5.15869
657 1 12.9761 16.9921 4.26557
1565 2 12.1329 13.5614 4.779
1922 1 12.6518 13.8569 7.39917
1375 3 12.657 14.9419 4.95815
437 1 14.5262 14.3724 4.71433
519 2 26.6018 13.7596 3.22336
1205 2 16.4518 14.8015 7.76431
1150 2 16.0348 16.3592 5.99874
551 1 17.3237 13.8024 5.87106
1953 1 19.0625 13.5179 3.42161
964 1 27.8098 14.7306 13.6233
832 3 19.4336 13.7181 5.3945
1809 3 20.6223 14.6748 5.67921
237 1 20.8677 17.2077 15.9373
1400 1 22.3307 15.2441 4.27196
928 1 19.2355 14.752 7.35048
1789 1 18.4982 15.8778 4.79442
1186 2 21.6957 14.5403 6.71872
1042 3 17.9656 3.43907 6.9307
64 2 24.6078 15.3882 4.9939
944 1 23.6491 15.0072 7.42928
1428 2 22.7374 13.0715 5.92607
1288 1 26.3263 14.4947 6.99803
667 2 25.9179 15.1973 4.03727
1615 3 27.7353 13.3271 4.68802
1473 2 25.8557 16.2153 5.31593
111 2 31.9657 13.4996 5.19002
1060 3 27.1743 16.3407 6.11648
1853 1 27.9647 15.2786 4.65114
1596 1 29.6365 12.7286 5.45355
757 1 29.6459 14.7535 7.29897
1443 1 30.4912 15.008 3.53577
1053 3 30.0497 15.7145 5.55633
121 2 29.5022 16.6823 4.42018
8 1 12.4677 4.84559 17.3408
1614 1 5.62544 4.79162 9.07136
1655 1 6.87559 7.02525 9.88122
1984 2 7.3543 5.00698 8.24441
1975 2 4.16016 4.48114 11.1115
1979 3 4.37993 7.55185 10.4308
1855 2 3.46741 6.47547 10.9878
987 3 4.54154 3.35742 10.5106
216 2 5.96685 5.06771 11.5711
676 3 8.5633 7.31969 11.5384
1406 1 8.96036 5.09917 11.2252
1895 1 8.73793 6.64465 7.90134
689 2 10.5171 3.42913 10.9175
1864 2 10.8159 4.16428 9.5799
97 1 10.8643 6.47394 9.97515
696 3 8.91587 6.95495 10.2885
454 1 12.5729 3.71243 11.291
1506 2 7.51023 15.4707 17.2428
1217 1 10.6 8.28366 12.0455
589 1 12.998 4.39618 9.09514
1564 3 13.864 6.59075 11.932
1127 1 15.969 4.78341 11.6406
1616 1 16.4101 3.16563 8.30397
292 3 16.497 3.83584 10.071
592 2 13.6653 5.53319 11.0108
1626 1 14.8512 6.44608 9.02856
555 3 17.1421 6.42986 12.9687
1559 1 17.5632 6.27196 9.01714
1796 1 18.2942 3.30813 10.9625
326 1 19.9529 5.22102 11.4371
520 2 19.0844 3.93577 13.0209
382 2 17.6292 5.12456 13.1769
1779 2 20.1305 5.88367 8.83102
1309 1 19.0221 7.56142 13.4847
1421 2 22.0563 4.31371 11.9632
1155 2 19.7715 7.74915 11.0784
1270 3 19.7161 6.73635 9.93504
1427 2 21.8483 3.99778 7.31616
476 1 22.3472 3.52299 9.55886
1671 2 26.685 7.72426 9.06457
1108 2 26.6885 6.15825 8.24014
836 3 23.4416 5.41756 9.43939
1027 1 25.3345 4.03727 10.0234
1598 1 22.3303 6.31751 10.9591
1500 1 25.1511 6.85096 10.7652
1936 2 23.5071 5.37245 12.8381
1908 2 27.5707 13.523 15.571
671 1 31.1933 4.34523 11.6796
1036 1 28.1884 4.94968 9.6716
1668 2 28.7636 5.53019 11.5956
1858 1 30.742 6.64944 9.62688
655 1 27.9279 8.0887 11.009
1318 3 27.9178 6.59959 12.6113
1132 3 6.3224 10.8411 7.79858
1121 1 3.6078 8.46135 8.79334
1833 2 7.69601 6.81649 12.6271
1380 1 5.05766 9.84423 10.8137
838 2 5.78797 10.0871 8.76864
558 2 6.54152 11.1708 11.6626
1874 2 31.9174 10.9394 9.52734
122 1 4.10946 12.4827 11.5187
1333 3 6.13387 12.4015 11.0938
482 1 4.71565 12.2131 8.38003
588 1 7.53969 12.2449 8.90296
1416 3 31.8835 12.6153 9.65864
1989 1 10.3085 10.5822 7.76499
530 2 10.9724 8.74082 8.85245
176 3 9.57769 8.81243 8.12687
1680 2 11.8511 10.4062 9.84761
1335 1 8.69196 9.38599 10.1395
1313 1 10.7115 12.0161 11.3931
312 3 9.6882 11.1692 9.68788
867 2 11.9553 9.97943 11.4547
1556 1 12.8483 11.4714 8.02039
1259 2 13.6633 10.6669 10.0296
967 1 13.0249 8.2077 10.621
533 1 14.0679 11.7408 11.6045
1636 1 15.9929 7.6545 11.825
1914 3 16.8093 7.82044 9.96524
1249 3 15.257 12.4407 9.53783
1628 3 16.1214 10.0654 12.0602
1181 1 16.3287 10.301 9.99051
1869 2 16.4738 11.6477 11.712
837 2 13.4967 12.8561 13.3181
1577 1 18.7608 8.63805 8.31952
1368 1 19.6024 10.0444 11.0078
1264 1 22.425 9.22952 11.9378
172 1 21.7376 10.9175 9.01135
990 3 20.9118 13.326 12.6766
14 1 17.8219 12.4447 9.10739
29 2 22.1823 13.7364 11.981
1120 2 20.8909 12.4396 11.1752
1822 3 23.0254 12.5375 9.26838
228 1 24.514 7.7731 8.05961
1530 2 22.6061 8.51037 9.66596
391 1 24.4951 10.8104 9.45414
983 2 23.919 10.5893 11.5922
1097 3 25.5849 8.59043 10.2238
1624 2 24.8472 11.9609 11.3178
981 2 23.2731 12.4331 10.692
1240 1 27.0054 9.91893 9.12882
917 2 24.1709 9.06871 10.7319
545 1 30.7513 11.987 7.66412
1025 3 31.7887 10.0727 10.846
1202 3 3.08538 10.3126 12.1155
45 1 30.2131 9.56321 9.40327
1960 1 30.0005 12.149 11.0725
759 2 28.5709 11.4279 9.14787
1663 2 28.242 10.7395 10.9158
1601 1 27.2449 12.5502 10.8716
1900 1 31.5268 8.28801 11.8273
465 1 4.33545 16.8216 8.21254
1382 2 6.05618 15.6656 8.32041
1199 2 6.67894 16.9899 8.83423
584 1 6.25981 15.0108 10.2615
1304 1 6.98849 13.7751 12.5528
1581 2 9.68202 12.6404 8.61999
319 3 8.3247 14.2236 10.5574
226 1 8.25609 15.4167 8.9349
616 3 11.2588 13.2909 8.88244
1902 3 9.44972 17.1675 10.1254
1497 1 11.7425 16.5831 10.9651
1798 2 10.1445 16.5427 8.70319
574 1 9.57092 15.0231 11.9938
1982 3 12.9488 16.3509 8.25493
1113 1 13.0045 13.4638 9.98363
310 1 16.0301 13.5248 11.0936
1145 2 16.4007 15.6543 9.30211
1445 1 14.8687 16.199 8.07444
1647 3 13.0383 16.2053 9.56995
970 2 15.8328 13.8859 8.70815
1281 1 14.5948 15.9888 11.3766
1689 2 13.3606 14.2754 12.5242
708 1 17.4131 16.933 7.60763
225 2 18.9778 16.9361 8.82899
1386 2 22.9163 15.0343 11.1158
1090 1 17.1514 16.7965 10.9165
101 2 18.0371 15.4068 9.60639
1561 1 20.2282 15.3932 10.5075
1910 1 21.5095 13.8161 9.33068
329 1 18.5923 13.5362 12.6877
384 1 24.7427 13.7416 9.63351
1394 3 26.2708 12.8356 8.1721
418 1 22.7848 16.906 9.21351
816 3 24.0487 15.6615 10.1581
445 2 21.9784 16.7754 11.3359
1842 2 26.3052 13.9675 12.0221
1274 1 25.937 16.4788 9.70578
1792 1 24.1722 16.6675 11.9794
1780 1 24.2867 14.0632 12.3387
477 1 31.4513 16.4244 10.6964
631 1 31.1197 14.3577 9.47127
790 2 29.1653 13.166 9.09959
736 2 27.9005 16.5352 7.28902
1777 2 27.1617 13.8059 8.77188
1607 2 31.6191 13.046 13.0194
1241 2 28.0366 15.3257 8.71478
1946 2 29.9279 16.5409 13.1401
402 1 28.4154 14.9709 10.5287
1329 2 29.0612 17.231 11.6626
1790 2 4.83739 15.5188 17.1404
515 1 4.35163 3.48139 13.4165
1154 2 5.29617 5.18893 14.843
311 2 6.26385 4.8652 15.9837
1694 1 3.28834 5.04127 16.1849
1200 3 6.15008 5.20494 13.1514
1942 1 4.89066 7.93491 15.9233
211 3 3.81784 6.71723 17.4663
52 2 8.07491 4.92047 16.3995
1257 1 4.99442 7.29195 12.9983
337 1 6.97185 3.43348 13.6656
767 1 8.01183 6.54729 14.7038
1435 3 9.65206 5.29649 13.4935
1681 1 10.1284 4.49268 15.3215
144 2 10.3044 6.51505 13.9999
1552 3 11.5542 6.55756 16.7874
754 2 10.7806 6.64898 15.5376
1871 2 11.2246 5.1797 12.7673
1478 1 12.5917 6.74687 13.6214
724 2 10.967 8.11429 14.554
878 2 12.0078 3.48435 13.8048
665 3 14.0526 7.83057 12.4916
1035 1 12.6892 8.02593 15.9834
99 1 13.9905 4.39023 15.2994
817 2 16.2639 6.8704 16.7324
130 2 14.7608 6.29415 16.1735
1755 1 9.12562 17.5188 17.2875
1226 2 17.6601 6.18842 17.017
1854 2 16.8223 7.5413 13.9558
1339 1 16.194 5.51179 14.7024
1844 1 21.1013 3.33881 15.6685
1287 2 9.48817 3.26704 3.55482
89 2 20.8641 7.54866 12.3705
471 2 19.4833 5.19795 13.6429
1163 1 18.3026 4.23858 15.2023
1440 2 20.7657 5.8617 17.1379
756 1 16.4655 10.8912 17.393
1673 1 19.7635 6.3053 15.6153
1308 3 21.1682 7.1289 14.4075
266 1 21.9678 5.19636 14.7956
196 1 31.8425 13.4524 15.217
6 1 22.7553 7.4776 16.8975
998 2 26.2599 6.28386 14.559
1488 1 24.9535 5.82859 16.6525
706 1 23.4094 7.25732 13.8687
1666 2 23.865 4.59254 14.4038
1549 2 25.8189 7.50731 15.3554
785 1 26.5354 3.58791 15.0149
1916 2 30.9267 3.23489 15.2454
1852 1 28.2652 3.86282 13.0521
1955 3 27.55 5.80457 13.8746
542 3 29.745 3.37258 6.70145
308 3 19.791 17.0027 7.58708
19 1 29.6943 6.11434 14.1286
956 2 30.1986 4.66588 15.7712
799 1 28.5421 5.81907 16.9226
1502 1 31.1956 7.62605 16.6458
1742 2 30.527 8.09578 14.1585
209 2 29.0027 3.64147 15.64
416 1 27.341 8.28129 14.2365
1800 2 6.28273 11.0004 17.2938
1807 2 32.055 8.15139 14.553
507 3 7.5503 8.15652 16.1688
1801 2 6.76275 9.57817 16.3373
181 2 3.08075 9.65664 16.2367
1988 1 3.95321 10.4367 14.0953
787 1 6.49888 11.6512 14.6753
1265 1 4.10324 11.5716 17.3076
1075 2 8.08206 9.98965 15.2597
348 2 4.08364 13.0101 13.7978
1543 1 7.39737 9.37048 13.0889
752 2 12.6624 8.8613 12.6387
1516 2 9.51853 9.20403 14.4964
1327 1 9.90557 9.14076 16.4013
670 1 9.5065 11.646 15.1001
1476 1 11.6218 12.4472 16.7827
1289 1 11.7397 10.1552 13.9145
1994 3 10.272 11.1354 17.0667
1260 3 11.0891 10.8259 15.9455
1726 2 15.648 9.87087 15.5187
1404 3 13.3455 11.347 13.7434
738 2 15.7506 7.60567 15.2256
58 1 14.5069 9.52155 13.2859
831 3 14.2916 9.61938 16.4791
1600 1 17.1088 10.4582 13.4833
179 1 14.194 11.9322 15.7483
410 1 9.2281 6.8425 17.3891
781 1 17.6074 8.7287 16.3264
731 2 19.5126 9.68546 14.4642
1232 1 20.2175 11.5482 13.8212
1973 1 19.688 11.2455 16.8147
1197 3 19.4728 9.84372 12.928
679 2 21.8758 12.2205 16.7795
656 1 21.5076 8.99175 15.4687
175 1 26.3532 10.5282 12.4197
1629 3 27.7523 16.4053 15.0981
1233 3 23.2619 9.74806 16.5148
468 2 24.479 9.36687 13.1346
406 2 23.71 11.1725 16.3941
1723 3 24.5025 12.0078 15.6361
1482 1 23.5364 11.6486 13.3788
1487 1 24.9047 9.84813 15.2291
125 1 25.9577 12.7608 14.3314
232 3 27.0725 11.2806 16.5438
637 3 29.3009 8.16056 15.0531
1486 1 28.7239 9.36593 16.7346
762 1 29.43 10.0258 13.9017
869 2 27.4884 10.6288 14.8213
483 2 30.9768 11.5562 13.0372
986 2 31.2323 11.0591 16.099
407 2 30.6787 11.6879 14.7842
611 1 29.1082 12.0305 16.03
374 1 28.3063 12.2259 13.282
1325 1 31.658 16.6815 14.8458
1381 1 6.1357 17.2575 16.7234
274 2 4.30076 14.0516 16.8555
1256 2 6.61588 16.131 12.8296
765 1 5.1293 14.9503 14.7721
1896 3 5.94437 16.4266 14.1595
197 2 3.0765 14.4377 12.597
185 2 14.9516 8.15108 16.5958
1764 1 4.59934 17.2988 12.4914
1763 1 6.64083 13.7689 17.2623
1728 2 21.0859 16.6958 12.5778
1915 3 8.40394 13.5097 14.4745
614 1 8.41731 15.3316 15.2756
1224 2 10.8155 16.2839 16.2981
615 2 9.67394 12.9536 13.338
723 2 11.2086 14.7096 15.8427
1430 1 11.5666 13.43 14.1252
793 1 10.6751 16.5272 13.8956
1605 3 28.8297 16.3773 14.3098
132 2 16.0342 17.5067 14.5118
955 1 8.42279 11.0865 17.5233
758 3 17.6808 15.0825 16.4545
214 1 15.612 13.4896 13.6814
464 3 31.2979 15.9136 12.8121
156 1 13.8892 15.9225 14.7187
1495 2 15.7231 15.9442 13.4635
458 2 12.8319 13.8064 15.6963
652 3 16.1673 16.5876 15.9275
685 2 16.9413 15.1082 12.4033
63 1 17.9441 15.7289 14.5571
1350 3 22.5492 17.3737 13.3084
1818 3 18.3417 15.7992 12.2364
1843 1 17.4426 13.1651 16.1262
1909 1 21.5369 14.9113 13.6135
523 2 20.1134 14.9423 15.0791
300 2 19.3705 13.6452 14.7536
951 2 19.6712 16.1056 12.7262
255 2 21.668 15.3542 15.8089
1432 1 20.0038 13.8021 17.2538
192 1 25.6055 12.5571 17.3427
1941 3 24.9055 14.9709 14.1752
1424 1 26.385 15.0628 15.9069
199 1 23.6637 13.9013 15.6617
452 3 25.8271 15.4682 13.1415
1203 3 24.6887 16.1811 17.0657
1635 1 23.905 16.4742 14.9003
1056 1 31.7572 15.7847 17.4805
30 1 29.6032 14.8174 16.0202
1016 1 16.2163 4.79163 17.3951
1320 2 6.05631 16.0983 3.16445
1991 3 8.42805 11.5395 3.11265
680 3 30.5889 9.61095 3.2088
318 2 20.8976 15.0052 3.09253
1439 3 4.91107 6.61098 3.26201
453 3 8.10579 6.35882 18.9246
1816 1 4.93405 6.42516 20.3787
1829 2 7.62993 6.97557 20.4746
1177 1 6.36889 3.57919 19.5607
54 2 4.43721 3.56003 21.1349
120 2 31.8704 6.21562 18.45
98 2 30.4778 16.2998 30.8183
1134 1 3.16608 3.81046 18.9295
1273 2 17.4975 16.7835 29.5214
1468 3 3.02141 12.8957 30.2499
1483 2 27.0084 8.62655 18.1159
1967 3 30.157 3.18919 28.5132
512 1 11.9132 7.19932 18.7518
1657 1 11.9117 4.07614 21.5626
1768 1 9.19701 4.98567 19.9723
379 3 9.15548 3.41327 18.1552
1845 3 11.5852 6.01483 20.1985
2 1 10.3482 6.9799 21.5344
792 2 3.36075 17.0977 29.1333
159 3 8.7305 3.37254 21.5499
1977 2 32.0071 17.2408 30.817
1669 1 14.6015 4.39828 20.939
1756 2 17.2155 6.35172 21.1327
1491 2 16.6499 5.304 20.0619
1409 2 17.273 3.91412 19.9183
871 3 15.8092 6.53227 20.3503
370 2 6.73097 5.72547 19.0578
712 1 14.6189 6.98284 18.5189
450 1 13.3868 6.86647 21.2265
1269 1 17.8149 7.02999 18.962
1587 1 22.3584 3.86402 17.679
1012 1 19.2156 4.5572 18.4793
1654 1 18.5334 4.53054 21.911
203 1 21.3809 4.6243 20.7563
1983 3 20.9238 7.15475 21.1377
394 1 21.825 6.78755 19.2282
221 3 20.0117 6.18047 20.7924
911 2 20.709 5.95038 22.2835
1458 2 19.6231 15.9759 31.5431
396 3 20.2507 3.64923 22.1996
772 2 30.8927 13.4523 31.0366
976 1 24.8942 4.76927 22.5216
1292 1 25.9312 6.82856 19.5939
1913 2 23.5455 5.11202 20.705
506 2 26.5741 7.45006 21.7519
5 3 23.6327 7.67816 19.0294
1242 2 24.6405 7.14635 21.6245
627 2 26.7734 5.26252 18.1598
1048 1 25.4454 4.05531 19.6118
1986 1 24.4696 14.2252 28.691
304 2 23.2397 3.86406 21.2584
158 1 27.9003 4.50008 21.7601
687 2 31.4637 6.42643 20.3412
289 2 30.0528 6.13189 21.5742
946 1 29.9531 4.97777 19.7433
929 1 30.87 3.25922 21.6885
1866 1 31.7385 6.67045 22.4641
1011 1 29.7072 7.677 19.5737
1860 3 6.49225 7.75577 20.7432
77 1 6.60028 8.39375 18.3348
150 1 4.39834 11.2896 22.1214
645 1 4.81719 9.2275 20.8412
294 1 5.64036 11.7015 19.4665
1347 3 3.66179 10.5481 19.8212
977 1 3.28696 8.72346 18.2992
733 3 3.36039 11.8442 19.3846
630 3 3.23035 7.71581 20.7466
313 2 10.5695 9.0484 20.1798
794 3 7.53461 11.2934 21.1851
126 3 8.66918 8.8845 18.229
950 1 7.91149 9.61821 20.2038
1781 1 10.3877 11.4652 20.7641
1634 2 9.49421 8.22498 19.4052
55 2 8.27837 11.6351 19.6227
1968 3 26.1586 3.28054 21.5619
538 2 12.3369 12.228 22.7094
372 2 23.8842 16.84 20.4094
1883 3 13.3362 8.55065 19.4895
703 1 12.4456 10.4519 20.5329
1363 1 15.6681 8.93646 20.2245
376 2 15.7299 10.2009 23.9024
258 1 14.793 12.4212 19.0289
1687 2 16.5922 9.31407 22.7017
1396 2 12.8191 12.518 20.8947
1146 2 17.1384 10.3694 21.0932
864 3 16.8457 12.8215 18.2021
413 1 13.0876 10.0441 18.0853
1548 1 24.927 16.9797 29.2484
1033 2 19.8857 8.77107 18.9833
1312 1 18.5395 11.9093 22.1947
338 1 19.3489 11.0469 19.5304
341 1 18.3401 8.79516 21.9041
1824 2 18.5994 8.91634 19.6933
1076 2 21.5673 11.3609 20.9452
411 1 22.0987 10.1114 18.3829
1231 2 23.2419 10.9623 20.4014
1729 2 20.9331 12.0659 18.3322
600 2 18.3002 9.67605 18.3432
972 2 23.4606 12.7075 21.4428
1713 1 23.0288 9.04283 21.0143
1166 1 26.6933 9.66416 22.6564
117 1 24.6986 9.65419 18.4324
1297 1 25.4391 12.0761 20.376
711 3 24.498 8.54926 22.1827
135 3 28.9905 10.5479 18.3987
1342 2 27.7294 12.1815 21.3255
586 1 27.6453 9.48728 19.7467
1461 1 30.2347 10.6108 19.9096
322 3 29.425 9.75531 21.3269
682 2 29.1668 12.7518 21.1759
244 2 30.0226 9.38052 18.2437
999 2 27.2245 10.2922 17.6278
1880 3 27.7427 7.42721 18.3909
1107 2 12.1896 17.0668 20.6441
1670 1 27.1851 14.6532 27.0956
1981 1 4.0336 13.7903 18.9549
908 3 6.42659 14.8045 20.421
1441 2 5.81258 13.0827 21.0477
460 1 5.13605 16.6291 20.0015
182 3 4.51435 16.8476 18.0255
430 2 12.0319 11.8995 18.9822
1806 3 11.5823 13.5155 18.6563
725 1 8.04176 13.7832 19.7596
1164 1 10.219 14.6829 17.8693
1348 2 8.97268 15.8047 21.3849
37 1 10.7173 14.4102 20.7415
688 2 10.2423 12.2326 18.7343
480 1 7.61424 17.1738 19.7814
1459 1 14.1172 16.1229 20.6599
1019 1 13.1664 14.7244 18.0166
1007 2 10.3302 16.9934 20.6831
1462 2 8.93833 14.1289 22.3233
12 1 12.0102 17.4861 18.0683
1370 1 16.963 13.1946 20.1594
1282 2 13.1496 15.2577 23.0119
145 3 14.1358 16.8676 18.5566
798 2 13.73 13.9371 20.4581
868 3 14.3335 12.7483 20.9441
845 1 15.8054 15.1198 18.2087
1131 1 14.8693 14.1094 22.3242
1667 2 16.3156 16.1849 22.3448
531 2 18.11 12.3123 18.15
104 2 24.8394 12.7345 30.2654
1389 1 17.7577 14.8597 21.2497
860 1 19.9732 13.689 19.4798
385 2 18.0412 15.9843 19.1565
1493 2 19.8551 16.4409 18.8376
618 1 21.7972 16.1468 21.4282
552 3 15.8739 17.0825 29.6094
1106 2 22.0932 14.3883 19.2316
897 1 23.03 12.7373 18.9129
123 1 22.5252 16.3939 18.1503
1464 2 21.8771 13.5195 21.1971
1412 2 26.4286 13.9115 20.5883
238 2 5.32149 3.85073 17.5384
353 3 25.1975 13.7582 19.0007
650 1 24.3731 14.7375 20.6929
1531 2 26.3956 15.6704 20.9042
1586 1 27.6967 15.3678 18.143
634 2 25.0954 14.9168 17.8556
1168 2 30.6815 14.0702 18.5902
1590 3 29.6702 15.1716 18.1098
1206 1 28.1826 14.8565 21.6702
1499 1 28.5004 12.5745 19.1653
1255 2 27.5928 16.5474 19.8942
76 2 3.17754 15.588 21.3293
494 1 31.1708 13.6469 21.0631
39 3 31.8226 17.1136 21.2107
1810 1 30.165 16.4702 20.1383
884 1 7.72908 7.24433 22.7951
1885 1 6.46442 3.21322 25.2054
949 1 6.20702 4.20714 22.3746
780 3 4.64238 5.32481 21.9478
1017 1 4.10974 5.06437 26.0851
502 1 6.76912 5.69116 25.226
570 1 4.78967 6.44756 23.8576
1405 2 5.19834 7.09005 26.3789
843 1 30.1206 13.1537 28.7381
91 3 4.11019 3.11722 25.6537
1912 2 7.70448 4.31177 26.797
296 1 9.71983 7.12937 24.6177
859 1 12.1152 3.8478 24.4381
1838 1 9.39014 4.56815 22.7915
139 1 13.1676 6.50723 26.2755
1593 2 10.9913 5.47163 23.4788
1826 1 9.71333 4.59624 25.3128
1006 3 11.3053 6.83052 26.0435
1528 2 13.4792 4.71162 22.9092
1251 1 12.5296 7.00805 23.6536
903 3 11.5764 3.89357 26.4039
1044 3 27.475 3.93851 18.7726
862 1 16.2809 5.46896 25.0143
1004 2 15.2206 5.41489 23.0172
1622 1 16.2131 7.24632 22.8075
1891 2 14.0893 5.24383 24.4975
1651 3 17.05 7.66477 24.8895
1433 3 14.5234 7.98469 28.1566
734 3 30.1323 15.2418 29.4693
1536 1 19.2626 3.57055 24.3287
1867 2 21.6243 6.60926 24.9223
996 1 19.795 4.98167 26.7476
1504 3 23.1894 6.09392 24.6211
1925 2 22.5433 5.70333 26.0759
1783 1 19.1553 6.47271 23.9344
229 1 22.2332 4.32531 23.8482
105 2 18.1956 7.64951 26.1167
877 2 20.1242 7.22984 25.8769
973 1 22.5345 7.02409 22.8157
701 2 27.1247 5.66879 23.8244
621 2 24.5841 3.2462 24.2237
1467 1 24.6762 5.37496 25.8727
1608 1 25.1336 7.52335 23.9383
528 2 25.8358 4.35132 24.5099
1718 3 24.954 4.69217 27.7958
1720 2 28.3405 3.5061 26.4449
263 1 29.3345 7.56469 23.7272
283 1 3.85294 3.90255 23.6601
1870 3 27.1182 7.03615 23.138
1621 3 29.6003 4.56577 26.6297
744 1 29.1022 4.16691 24.7598
776 2 30.6169 5.20264 25.6657
1285 1 31.6995 8.13979 24.9483
1300 1 27.233 5.92742 26.5987
1211 3 31.4935 6.36521 26.4308
789 3 8.24383 8.69866 24.1628
889 3 5.33882 10.508 23.6354
997 1 5.39006 9.04665 24.8501
40 1 31.9366 10.8023 24.5893
455 3 3.62304 12.0079 26.3734
1013 1 7.90729 10.308 23.1749
1990 3 10.9215 8.1397 23.3946
250 2 9.9741 9.13902 21.7487
1544 3 10.0982 7.60907 26.702
297 1 7.97057 13.4634 26.1749
1645 2 7.24377 9.8931 25.953
1771 1 9.93465 9.93836 25.5517
1696 1 11.8874 9.88768 22.9413
910 2 10.0035 11.9598 26.5745
1028 1 10.2314 12.7147 23.7246
1354 2 10.8671 10.9901 28.6322
965 3 11.7789 11.5386 27.2892
1359 1 12.5936 11.0727 25.2101
70 1 14.9856 11.4099 22.2488
773 1 15.1245 9.0133 26.3486
1032 3 14.0067 8.346 22.9296
1054 3 14.5057 9.40104 23.507
1665 1 15.2411 12.202 25.137
431 2 16.3745 10.7764 26.744
498 2 17.1451 9.16122 26.9683
17 1 17.5648 9.86097 25.0371
620 1 20.5502 9.31504 25.9182
1383 3 22.2625 10.2584 25.4389
593 1 21.0079 10.2254 23.3288
777 3 19.5347 10.5603 24.5077
1101 2 21.6065 11.6349 26.0467
633 2 17.4089 12.2864 24.3031
1136 3 18.3754 12.6798 27.0745
598 2 24.8368 11.3871 22.7702
1472 1 23.1057 8.07289 25.3256
1950 2 27.009 12.1658 23.5812
1535 3 24.9721 9.13573 25.3717
1210 1 23.944 9.85888 23.7505
1096 3 24.744 9.81664 21.6188
547 1 25.6473 10.5521 26.2059
245 1 23.0303 12.3224 24.1823
412 2 25.5213 11.6271 24.1902
1775 1 29.6534 7.49936 27.3278
1105 3 27.8652 10.8996 24.111
524 2 31.1748 12.265 26.492
885 1 31.0596 9.19345 22.2489
612 1 27.2141 8.56819 25.187
1045 3 30.4275 9.84972 24.0735
737 1 29.8314 11.6082 23.231
489 1 29.5497 10.9818 25.8968
131 2 30.589 13.0415 24.9416
1195 2 31.7136 13.0743 23.2976
493 1 28.2988 13.2752 25.5063
420 1 3.19818 16.5868 23.5564
321 1 6.59372 15.7124 22.2559
1940 1 6.31686 12.3123 23.4427
546 2 7.42901 14.9762 24.5861
1963 1 5.22241 16.3419 25.3332
1235 2 4.60935 13.4266 23.8414
851 1 5.29129 13.3533 25.936
65 3 31.7408 15.5177 25.2156
1093 2 32.0205 16.5677 26.3611
1930 2 8.3863 12.5625 21.9511
259 2 12.0682 13.8011 24.7461
1872 1 8.20261 17.5383 24.4709
622 3 18.2083 15.3847 17.7655
1627 2 8.22269 13.6157 23.8155
1772 1 10.8748 16.2271 22.9329
763 2 11.7438 14.7797 26.0946
727 1 9.73201 15.0966 25.0499
872 2 25.8301 12.9314 27.7173
166 2 11.7155 14.1645 23.1808
1749 2 7.8989 15.8494 26.1239
290 3 14.0406 16.5106 23.1578
1804 2 13.3589 13.0121 23.7369
1537 3 12.834 17.2698 26.1481
1704 2 16.6122 13.1243 22.4642
1010 1 13.6701 15.2518 25.0441
823 2 15.8109 16.2413 23.7808
830 1 16.6687 16.8677 25.9092
1286 2 16.3577 13.9614 26.095
673 1 17.3355 14.6314 24.231
183 3 23.3602 15.3344 30.0389
1290 3 14.9554 13.894 26.5555
1423 1 20.1044 16.0981 23.5845
1161 2 17.564 12.3814 25.8669
170 3 18.4783 16.1064 25.0955
663 1 19.609 12.6449 24.9673
1129 3 22.6483 16.81 23.6503
1741 1 18.3492 14.5354 26.7023
1319 2 22.4586 15.1913 23.455
200 1 21.698 15.8787 25.8882
1065 2 23.6118 14.029 22.9097
1122 1 25.729 13.9564 22.7263
85 1 24.4231 17.1032 22.6111
1773 2 20.906 14.3587 24.446
1710 3 23.5972 14.939 26.8416
1167 1 25.2025 13.5451 25.761
518 1 25.0037 16.57 26.5831
619 1 8.38006 17.3532 27.1564
577 3 28.5824 16.5718 23.3805
249 2 3.2777 14.3716 24.4811
562 2 28.3253 15.7348 24.6352
1170 1 31.9295 14.9105 29.9831
1157 3 28.9034 15.2236 25.8727
1678 2 28.2839 13.3236 23.0894
350 1 30.8942 14.4932 26.7731
626 1 29.9438 14.7306 23.5275
907 2 22.9919 16.2571 31.1377
1071 2 6.02679 7.45565 31.3914
961 1 7.45184 3.08255 31.4307
1508 3 6.3896 3.4545 29.7543
1479 1 6.23997 5.54507 27.918
532 1 3.59605 7.67788 27.6001
1489 1 5.44321 5.41409 30.5421
1959 3 6.42808 7.17565 29.7229
1812 2 4.19637 5.2881 28.6147
994 1 3.81703 3.39132 30.3569
1976 2 3.30691 6.27282 29.6865
1346 2 26.5074 15.4767 29.1778
205 1 24.7687 14.3808 31.3352
1296 1 11.9737 4.17382 28.5731
666 1 10.0402 5.67493 31.0848
1077 1 10.0741 5.95907 28.004
398 3 10.3653 4.6488 29.4205
1356 2 11.3858 6.30142 29.5494
991 1 12.7686 3.62893 31.6495
260 1 12.1052 8.0428 30.9806
819 2 17.5418 4.73936 27.6111
1604 2 16.203 4.0978 27.0087
80 1 13.4788 6.45335 29.1435
700 3 28.4189 4.94885 31.6398
1426 1 15.5032 4.29681 28.9807
993 2 14.1663 5.54345 30.9072
1834 2 14.9033 3.84299 31.1287
1602 1 16.7096 5.59156 31.4588
526 1 16.6165 6.99282 27.3872
1156 1 19.1778 3.35354 29.2926
898 2 17.898 5.05357 29.4017
1403 3 17.7084 6.7326 29.6819
1029 1 19.5689 7.51555 30.9016
57 2 18.9842 5.23683 31.4516
206 1 20.6382 4.36599 31.8867
1046 2 20.4558 5.43799 30.1318
1766 1 22.0287 3.89999 28.8509
1631 3 20.396 5.11232 28.4099
347 1 21.4986 6.7402 27.7217
456 1 22.3605 6.93394 31.1788
201 1 30.318 17.323 22.4427
1520 3 22.9343 4.86085 31.834
1008 1 24.2963 5.41342 29.9386
958 2 26.5103 5.38147 31.033
1692 2 26.0888 3.92636 30.8615
284 1 26.4057 3.71453 28.8493
339 1 25.0249 7.77922 27.4974
1336 3 23.7831 7.2303 29.4187
373 2 28.053 3.78126 30.6635
1188 1 25.6659 7.97407 30.5899
741 2 28.1661 8.23777 28.5998
962 2 28.645 4.24142 27.9568
1849 1 30.8211 5.48496 31.6138
1466 1 31.1489 5.26192 28.3925
1836 1 28.4262 6.2845 29.6404
587 2 5.69667 8.86161 26.7522
921 1 5.86098 11.1365 26.927
1051 3 6.54118 9.58275 31.1366
904 2 4.04161 11.6775 30.7075
883 1 4.17236 8.09433 30.2941
1310 1 6.31411 8.99001 28.6923
876 2 4.39387 10.2436 29.532
1117 1 6.4793 11.3631 30.2003
1357 2 7.77802 11.8531 28.2145
959 1 7.94803 7.59017 26.5422
760 1 10.564 10.591 30.7967
112 1 11.7078 8.43944 27.9204
299 3 10.1238 8.93679 29.3969
1330 1 13.2373 11.0261 29.3041
982 1 9.08977 10.3106 28.2801
1306 1 8.11944 7.87014 30.6972
934 1 14.0126 3.9189 26.4604
325 2 14.7946 10.9999 27.0838
926 1 15.1139 7.75348 31.9245
1185 3 14.2188 10.9592 30.8911
163 2 14.8947 7.93594 29.8833
668 2 13.3915 9.92746 31.5829
1216 2 13.4647 8.93558 29.2752
1192 1 16.2216 11.919 31.1039
1588 1 15.6611 9.87648 28.9135
796 2 16.5116 7.4746 29.6637
1743 2 14.1722 12.2238 30.3252
110 3 17.83 10.8079 29.739
891 1 16.1865 12.7867 28.2166
1362 1 13.6131 12.7248 32.0473
49 1 18.5779 10.792 28.0368
1532 1 19.0536 10.7009 31.4097
1039 1 21.4916 9.76445 29.6179
1079 1 18.6837 7.78603 28.1366
387 2 20.8655 11.853 29.0683
721 2 20.7489 10.8808 27.6592
1082 2 20.5666 11.4361 30.8626
661 2 24.0866 12.1072 27.5835
880 1 22.9183 10.1763 27.3724
24 2 23.2677 8.60703 28.9047
1734 1 24.9931 10.4955 29.1702
1700 3 26.3829 9.00004 28.5094
351 2 22.5391 12.0246 29.0236
925 2 22.3474 11.4874 30.749
717 1 23.9348 9.77043 31.8636
1560 1 27.03 13.2261 29.9044
1360 3 23.6019 12.4017 31.4707
1471 3 27.6797 12.9009 28.1132
7 2 24.8392 11.6029 31.378
768 1 31.8408 10.3247 27.515
95 2 27.101 7.88158 27.3436
264 1 30.7671 10.6428 30.0209
288 1 15.3903 3.0333 23.0636
775 1 30.7079 7.97282 30.237
1685 2 29.9567 9.19301 28.6644
301 2 28.4177 11.6195 27.9568
208 3 28.702 10.2228 28.0905
1272 1 28.1601 9.78916 29.9655
108 2 27.258 17.3009 24.1886
421 2 3.57811 15.6438 27.7079
1823 1 6.65855 15.5005 27.861
69 2 6.92691 15.7101 30.7408
1133 2 4.90891 16.4931 28.9235
279 1 4.19704 12.3833 28.4837
774 1 5.24954 14.2789 30.2059
143 2 6.26642 12.8834 28.4115
503 2 15.4067 17.3417 22.7141
1697 3 11.5887 17.1525 31.7993
1371 1 10.8103 13.3127 28.042
1683 2 11.4347 12.5259 30.3338
1949 2 7.82542 16.2353 29.2629
1001 1 8.21522 13.5721 29.3562
1447 1 9.35079 15.1527 30.3642