# LAMMPS data file written by OVITO Basic 3.7.11
2000 atoms
3 atom types
2.944446767 32.121441574 xlo xhi
2.944446767 32.121441574 ylo yhi
2.944446767 32.121441574 zlo zhi

Masses
 
            1   47.86700000             # Ti
            2   12.01100000             # C
            3   10.81000000             # B
 
Atoms  # atomic

91 2 3.56875 5.90233 3.89766
1478 1 5.14352 4.99868 5.57681
51 2 5.74401 7.42365 7.24288
158 3 6.9995 4.65954 5.21301
1392 1 6.58036 4.70493 2.99988
1263 1 4.97054 3.17615 3.42499
696 1 7.63207 6.89533 6.68034
990 2 7.37282 3.60022 6.54345
888 3 3.84026 3.97143 7.23504
1354 1 5.782 7.49481 4.22472
1412 2 3.48517 7.13369 4.96981
1260 1 12.1977 6.97195 4.53173
561 1 10.4482 5.75533 4.20646
1308 1 10.4463 6.7608 7.26742
1442 3 10.7746 4.63212 7.05253
772 2 12.4484 4.58983 4.89391
514 1 8.71976 4.58605 7.3199
812 1 10.7285 3.25041 5.72442
1624 1 12.8019 5.27184 7.16961
827 3 13.8946 4.85763 4.48169
1552 1 14.8875 7.15622 4.56593
1843 2 16.6361 5.90039 6.07338
326 2 15.0108 4.70278 7.30036
80 1 16.5208 3.5083 6.96172
908 2 13.3895 7.35971 6.83281
1768 2 14.8995 6.60601 7.08657
243 1 15.6527 4.08984 4.06996
548 1 14.0342 2.93964 5.36496
1892 1 29.5431 14.188 13.5663
1664 2 19.9009 2.78801 5.27641
1084 2 17.4447 7.447 6.48147
1331 1 17.6361 5.45423 3.87393
130 1 19.265 5.06219 6.63587
1103 1 21.4694 4.84726 4.57439
787 2 21.6899 4.16964 7.13547
1937 1 21.4338 6.99128 5.64106
457 3 19.3858 3.80445 4.04859
137 3 21.7228 6.66645 3.63704
574 3 19.4034 6.58678 5.21698
1289 1 19.8817 6.56863 3.0469
1380 1 23.5691 5.26315 7.05535
144 2 26.446 4.22437 5.32955
1394 1 24.1089 3.79104 4.55087
771 3 25.4994 3.03285 6.23924
988 2 25.9772 5.56253 3.93873
1149 1 23.8387 7.2939 4.71322
64 2 26.6461 4.08764 3.74047
1826 3 25.0038 6.36771 3.113
1481 3 23.5152 7.38179 7.57132
132 3 27.1991 6.23088 6.98634
1812 2 28.049 5.15742 6.67165
217 3 31.6557 3.80055 6.66875
1272 3 30.6381 3.2055 5.84437
956 1 31.1894 5.56907 5.83055
1821 1 28.5763 4.0448 5.20006
1246 1 31.2244 3.76117 3.61325
601 1 29.3794 3.64154 7.41438
954 3 29.8271 7.73219 4.91632
42 2 4.71618 10.1186 4.53034
1823 2 7.13718 12.7749 3.87797
1855 1 6.74241 9.57449 7.18973
1541 1 3.69424 8.90849 6.26092
1791 2 3.66699 8.74775 3.78275
1677 2 4.71004 10.7101 5.97954
1079 1 6.94605 12.4844 6.08279
749 1 6.77955 10.3575 3.40956
1140 2 7.61628 10.7144 5.29933
974 1 8.9852 8.40574 5.09292
183 3 10.1729 10.0737 4.01598
1616 2 11.0769 9.09907 4.80244
613 1 9.7741 10.8242 6.08583
1893 1 11.9252 9.42467 6.80441
1668 2 9.19128 8.44126 7.51664
1593 1 12.0829 11.8877 3.97618
1200 3 11.9058 11.3685 6.15137
155 3 13.1066 11.9221 6.58871
1782 1 16.0262 8.86537 6.86174
1353 1 14.0664 9.5729 3.37643
345 1 14.8131 11.3944 5.87254
1721 3 15.9442 9.24719 4.65085
1909 1 16.3332 12.7923 4.02461
214 2 19.557 7.85478 6.18637
138 1 18.1083 8.76366 4.74259
430 2 18.2764 10.8958 4.61485
266 2 17.8532 10.8764 6.16252
14 1 20.0255 9.95336 6.43262
99 2 19.1854 11.4741 7.99055
65 3 21.4017 9.09761 5.25434
479 1 19.9245 9.91038 3.49769
1548 1 21.8161 11.1775 4.81692
781 1 22.2639 8.76444 3.32842
1381 3 25.6438 9.4539 7.07925
730 1 23.2971 9.88463 6.70842
1467 2 25.1494 9.07314 5.56013
1265 1 26.2548 11.5547 6.46643
732 1 24.4771 9.74597 3.64782
1927 1 27.1142 7.49461 3.44142
505 2 23.3059 12.6395 5.61792
1920 2 24.0793 11.6839 8.07243
598 1 28.3664 8.27604 6.01232
1824 1 28.6757 10.9291 3.08365
1032 2 28.7282 12.1532 5.49307
801 1 31.4323 10.4339 5.10223
165 2 31.2488 8.02663 5.33418
404 1 29.5435 10.3567 6.90168
1655 3 30.2579 11.9062 5.07396
1383 2 31.0683 12.0173 3.45971
1956 1 4.5419 12.4337 3.73042
151 1 3.82466 15.1123 5.74774
1113 2 7.02571 15.0098 6.66258
698 2 4.6005 12.6608 6.22055
1742 2 32.1369 17.4907 6.50298
1199 2 3.24048 13.8538 7.69711
1790 1 6.34332 14.6748 3.45847
47 2 6.7124 16.579 6.79795
279 3 4.38489 14.4019 3.88996
225 2 10.596 12.8629 4.57342
1613 2 10.9856 13.1539 6.32252
589 2 8.1633 13.8987 7.28518
898 2 11.3492 14.3968 5.13264
1258 2 5.28935 2.97773 14.9393
655 2 9.54724 13.0471 7.33377
1530 1 9.31844 14.5468 4.05132
989 2 10.4513 16.1279 5.47388
875 1 8.29973 16.3555 5.115
1988 3 10.1505 16.693 3.86811
669 1 12.053 14.8302 7.45187
997 1 12.2984 17.1564 5.02724
999 2 13.7003 13.5441 2.75872
1293 1 13.9427 14.7398 5.23771
823 1 28.9782 16.3847 16.1259
856 1 16.6008 14.7463 5.70441
746 3 15.0344 14.2066 6.91644
804 2 13.6527 15.5184 3.20515
163 2 17.1854 17.3147 4.88861
135 1 15.1741 17.4865 3.80653
603 2 18.331 13.2057 3.20426
409 1 19.3476 12.8622 5.62573
620 3 18.0721 14.2484 6.90611
759 3 20.756 13.1994 4.27437
1586 2 21.5985 13.4274 5.54466
1928 1 21.8967 15.562 7.55763
417 1 19.9205 15.6761 4.92593
1598 1 18.3849 17.179 16.3432
215 3 20.5563 16.6668 6.55961
1732 1 22.4593 14.5902 3.73395
1526 2 24.826 13.8218 4.55358
943 2 26.4714 15.2198 3.88189
1248 1 24.4361 13.9417 7.25815
66 1 24.3411 16.0717 4.96573
535 2 26.8511 16.7183 5.10045
1588 3 23.732 16.4895 7.55961
757 2 28.2251 15.6551 4.84388
1241 1 27.3205 14.4741 6.50311
308 1 30.3195 13.0878 6.91251
1333 1 30.2092 15.9868 6.20245
1617 1 28.8562 13.6135 4.18137
1294 1 31.5697 17.213 3.60843
876 2 28.1367 16.6501 6.3351
854 3 29.505 15.693 4.15309
1940 2 31.1039 14.7827 8.55789
1288 1 31.3541 14.487 3.37264
327 3 3.568 5.67372 10.8893
1483 1 5.08778 6.10315 9.03703
1406 3 4.29216 3.73229 8.89945
1770 1 4.52938 7.73734 11.8742
374 2 32.0947 7.17375 10.3033
1067 2 6.49342 4.20934 11.0807
1529 1 8.27081 2.94825 9.7501
292 2 4.52935 4.89193 12.0021
901 1 8.17771 5.43528 11.4008
847 3 12.3638 7.40129 8.03681
216 3 11.9475 7.34727 9.50269
403 3 8.51672 5.96915 9.15742
258 2 9.77696 3.99875 11.0922
697 2 10.102 4.63397 12.5939
1540 2 11.6707 5.39151 12.4432
817 1 12.1487 3.35344 11.9092
873 1 10.4661 6.24158 10.6295
871 1 11.2849 4.1501 9.07285
1969 3 12.7613 3.29855 7.85306
513 1 16.9589 6.2319 8.00816
628 2 12.6711 5.28097 11.1465
1400 1 14.1 6.91412 9.10178
1680 2 14.2979 4.7899 11.2483
802 1 16.4599 5.91391 11.5643
683 1 13.8025 4.29856 9.14648
1840 3 17.1321 5.15647 9.70123
453 3 15.3639 3.93728 12.0449
57 2 17.8436 4.42787 8.6709
1535 3 20.7255 4.0703 10.3136
498 2 19.248 6.91827 11.9797
978 1 21.2569 5.44715 9.09017
594 3 19.4178 6.94953 10.3228
1451 1 19.1226 4.85882 10.6091
1068 3 17.5743 7.43935 11.9848
1756 1 21.153 7.50943 11.1865
909 3 19.0394 4.11673 12.644
1179 1 26.0602 4.30855 7.66131
300 1 25.6348 7.34211 7.74635
1635 1 23.8092 5.3261 9.57822
1284 2 23.3067 3.10283 11.1086
529 2 26.1079 5.06698 10.18
1158 2 23.4074 6.79306 11.5724
1379 3 26.4861 4.25313 11.3562
344 2 26.9691 6.15878 9.01481
1318 2 22.3939 5.13006 11.6587
1808 2 24.9004 7.73955 11.002
993 1 31.9091 5.16822 8.98146
1908 1 29.376 6.91412 8.61943
1846 1 27.6704 6.66278 11.0194
1792 1 31.3204 4.24291 12.3175
995 2 30.1897 6.86902 10.7089
1236 2 30.1549 4.56798 9.93411
1176 3 29.374 5.10864 11.3377
1992 1 28.0128 3.60533 10.2059
1983 2 5.48562 7.87733 8.89909
948 1 5.35863 10.3167 10.0388
658 2 5.60892 11.4817 7.29228
1393 3 4.65207 9.08882 8.50378
1699 1 7.67036 8.15895 9.52174
18 1 3.46724 11.0759 7.79718
1653 3 6.24755 9.31262 11.4815
467 2 6.82252 10.5732 12.5168
49 2 3.65787 12.1343 10.4699
1455 1 7.80082 11.4236 8.8921
484 2 8.8345 9.92834 8.39391
1077 1 8.54486 10.3419 11.1614
1280 2 9.69177 11.8879 10.2148
1165 1 10.2974 9.121 9.49419
1959 3 9.04427 8.06522 11.3335
1487 2 10.1489 8.23241 12.2244
272 1 11.1423 11.0166 11.2791
337 1 12.3809 7.59453 11.4607
166 1 11.5977 11.9521 8.58092
1256 1 16.9116 12.4753 8.2551
1577 2 13.1143 11.655 11.1914
1900 2 15.9808 8.26578 9.50134
1860 2 13.899 10.4103 11.6377
1797 1 13.5614 10.1552 9.19088
250 1 16.1505 9.00808 11.3488
1002 2 15.5393 10.7042 8.96265
611 3 16.738 10.7737 10.0218
1222 1 15.4177 12.3646 10.8594
1700 1 21.7623 12.387 7.4622
710 1 20.168 8.12266 8.28212
664 2 21.4017 10.1482 8.40912
199 1 18.9175 8.80164 10.8223
1880 1 17.6343 9.80986 8.51466
1890 2 20.6473 11.953 9.28124
968 2 20.954 9.32967 10.035
1723 1 20.7852 10.5775 11.8003
1922 1 18.6938 11.6439 10.6122
441 2 22.4387 12.0499 11.674
1844 3 18.9764 10.4169 12.1769
381 2 22.3574 11.1797 12.8425
795 2 24.9842 9.95362 8.53068
1739 1 22.9185 10.8796 9.89057
1561 2 26.3987 8.60742 11.2088
9 1 23.0387 8.12334 9.41377
443 2 25.0117 9.47481 10.2297
383 1 23.9468 9.70414 12.269
676 1 26.9004 10.9 11.7797
1570 2 25.7569 12.4239 8.34264
140 2 23.7208 13.0781 8.96575
762 1 27.4962 9.43222 8.40043
1993 1 31.7705 9.27985 12.3617
826 3 29.9878 7.77556 12.361
1874 1 32.0735 8.60665 8.61111
1234 1 27.9136 12.1985 8.55318
1097 1 29.3678 8.91415 10.7727
1115 3 30.1542 11.7977 8.48169
232 2 30.4025 10.4199 9.65227
913 1 30.5462 11.3323 11.9814
982 2 31.9601 10.3979 10.1915
899 1 6.64222 12.7495 11.5337
869 1 4.4735 16.44 8.4714
346 1 5.05666 13.27 8.58053
1059 3 5.29322 14.8392 9.65727
1022 2 5.19264 16.3757 11.474
1506 1 4.10257 14.5481 11.9251
1019 1 7.09224 15.4 10.7654
1089 2 8.95505 15.857 9.70918
1807 2 8.21576 15.3152 8.24968
123 1 11.4446 16.734 9.08307
636 1 9.38075 13.3062 12.0474
767 1 9.56293 13.9086 9.62134
1644 2 12.3641 13.1118 11.9979
932 2 12.5283 13.1087 10.3688
1509 1 10.1231 16.6464 11.6491
435 3 10.9952 14.1529 12.0866
1050 2 11.7157 14.3158 9.63787
149 2 8.49792 17.0729 8.639
1218 1 14.2101 16.6271 7.99511
1249 1 17.1261 15.2803 8.64171
623 1 13.8901 13.2939 8.3152
1497 1 13.6159 15.3004 11.06
1907 3 15.2333 16.4369 9.86844
1382 2 15.5285 17.2059 11.4783
36 2 15.345 14.343 12.3142
845 1 17.3325 14.286 11.5524
376 2 20.7827 12.2634 10.8705
1953 3 17.681 13.9386 9.74559
205 1 19.2512 16.2116 11.1935
1116 2 19.3588 14.1537 10.5208
15 1 20.4577 14.2649 12.6671
1780 2 19.1422 16.211 8.77909
891 1 19.4576 13.7784 8.28359
1220 2 20.6439 15.481 9.12135
466 1 22.2599 17.007 10.7414
1237 1 22.3293 13.8011 10.4852
1109 1 24.5042 12.5563 11.885
1446 2 25.8642 13.429 9.81251
238 2 25.2749 14.2973 11.3825
419 1 24.7204 15.4714 9.75683
1351 2 25.8131 15.5912 11.8993
1247 1 26.5443 16.5865 7.95389
1737 1 23.3407 15.2046 12.8274
1036 2 31.6104 14.2395 15.1543
541 3 26.1783 14.3817 8.64028
1056 1 28.0314 13.8606 10.8098
867 1 29.263 15.7145 8.80079
1975 1 28.0697 16.6575 11.6068
1304 1 31.0467 12.9184 9.7722
313 3 30.9436 14.0427 11.8215
520 2 29.9777 15.0659 11.035
1879 1 32.1318 16.4835 10.6887
480 1 6.58274 4.77826 14.1039
516 3 7.72579 6.50298 13.1848
112 2 4.53073 3.56416 12.684
44 2 5.06082 6.46232 16.7015
1839 3 4.18025 3.93075 15.4637
776 1 6.88889 5.89319 16.9244
1858 1 5.55594 7.50673 14.7709
150 2 3.50288 6.81151 15.3302
1871 2 8.34031 5.12994 15.4598
1682 2 9.05941 5.18264 13.6995
1030 2 9.5194 4.97635 16.82
221 1 8.78229 7.25225 14.8377
486 1 10.8226 4.0673 14.8378
756 2 8.29429 8.26239 17.1911
928 1 8.68931 3.02913 13.1046
1121 2 13.0709 7.31105 14.9145
248 2 12.4511 5.55898 14.0937
685 1 15.0561 4.20587 14.1501
522 1 12.9375 5.34918 17.125
1828 3 12.7854 4.53925 15.0179
312 1 14.3366 6.76453 13.0059
570 2 13.8122 5.84227 14.9665
984 1 16.4575 5.33038 16.7469
755 2 16.5705 7.6601 17.2207
1368 1 14.9748 8.22052 15.9301
227 2 17.3255 3.84234 15.1864
1397 1 31.5421 15.7366 17.1532
1316 2 19.0603 3.93452 14.263
555 1 17.8271 6.26663 13.6159
119 2 17.5521 7.43928 15.6835
50 2 19.9664 3.0131 15.5998
236 1 20.832 5.20812 13.1583
1580 1 19.9542 5.31249 15.7595
1254 3 21.8357 5.49728 14.7868
947 1 22.1243 6.70136 16.7104
590 2 20.6709 3.53518 17.4708
811 1 22.351 3.02491 13.5102
511 1 19.6894 3.16002 8.25848
1098 1 24.9736 4.34461 12.5755
1421 1 22.5041 4.14438 16.1546
1323 3 23.9726 3.75292 14.7872
937 1 25.9156 6.10448 15.5103
1212 1 25.7756 3.68572 16.1989
761 3 27.398 4.00664 15.2548
206 2 26.915 6.43906 17.3669
1048 1 22.7554 7.49964 13.8379
26 2 24.5029 5.49756 17.2133
1108 1 31.0894 5.2133 15.1775
1107 1 16.9056 3.09062 10.2133
809 2 29.0559 5.7415 17.5873
585 2 32.1456 3.78937 16.552
1163 1 28.2702 4.39609 13.1196
582 3 29.8826 4.18169 13.9391
1957 1 28.329 7.28914 13.838
725 2 31.1383 7.60204 15.2273
955 3 4.13872 12.7438 16.5064
107 2 3.40957 7.83009 13.6932
343 3 5.46083 11.7665 13.0372
592 2 5.71818 9.59219 16.0463
1404 1 5.02781 9.70649 13.7941
37 2 7.31107 8.83145 15.6337
1744 3 4.47376 10.55 15.5685
515 1 6.08192 11.7989 15.1996
1347 1 3.60834 11.9867 13.6079
1416 1 7.54448 8.16725 12.5034
444 1 4.00886 10.8144 17.4568
1673 1 7.73731 10.7713 17.4463
1217 3 10.028 8.23788 16.5707
162 1 8.13474 10.2531 14.1645
544 3 9.99415 10.7839 13.0162
950 1 11.1608 8.85642 13.9659
95 1 10.0762 10.1514 15.8772
63 1 11.9056 8.34271 17.4592
580 3 10.6767 12.2111 15.9732
192 2 8.23215 12.5376 15.6899
10 1 11.1452 12.2387 13.8522
1597 3 15.2624 9.94041 16.1935
1722 1 17.9698 9.56744 13.5168
260 2 13.5041 9.36144 12.7516
1482 3 13.8025 8.42284 14.1961
1901 2 12.8653 10.7941 13.2955
385 1 13.0697 10.1643 15.725
70 1 17.5101 11.9788 12.7134
713 1 15.4341 10.1498 13.8634
588 2 15.1033 11.3956 17.0948
1355 2 14.7022 12.76 15.4979
1989 2 15.3465 12.5436 13.2977
1806 2 13.5016 12.2722 14.4218
919 2 16.4806 12.163 16.4592
1867 2 19.321 7.38488 16.2861
1771 1 17.555 9.60122 16.5913
1726 1 19.6918 8.02338 14.2412
440 2 19.5831 11.5167 13.6004
750 3 22.0773 9.52799 13.4955
1776 1 19.718 10.4574 15.7125
684 2 18.5141 12.1015 16.4611
528 2 19.6945 8.55671 17.5549
1340 2 21.6415 9.29037 14.8726
813 2 21.4293 11.8847 16.3069
793 3 18.0221 11.6487 15.0459
1518 2 26.0553 12.3723 17.0479
68 1 25.8085 7.97671 13.29
682 1 22.6715 10.1497 17.1724
1065 3 24.0837 11.6098 17.1929
181 1 23.422 10.9066 14.8733
495 2 24.1744 8.99885 14.3444
667 2 23.5319 8.26226 15.9856
1342 2 24.8732 9.07449 15.9338
1960 1 25.9914 10.5903 14.2053
191 2 29.2912 9.32498 13.1685
1366 1 30.9318 12.3351 16.3644
263 1 27.6499 10.819 17.0186
1543 2 28.1665 12.7431 12.8223
859 1 31.8549 9.49161 15.0476
280 1 27.3036 8.59375 15.9978
1172 2 29.9664 10.083 16.3606
949 1 29.5649 10.9891 14.0975
1938 3 28.0855 9.46657 14.2524
1707 2 30.0466 8.48052 15.6786
1764 3 5.04615 16.4995 16.8436
474 3 4.5073 14.9199 17.5082
101 2 15.8401 17.3213 8.80445
1825 1 6.17568 13.4944 17.4241
546 2 30.174 14.3274 15.8979
586 1 6.53385 15.2412 12.9696
1460 2 5.74554 13.3736 13.5833
270 1 4.54869 14.3582 15.0693
1656 3 6.78912 14.1024 14.5124
1996 1 4.42228 17.1945 13.9831
770 2 7.35153 17.0047 14.5505
760 2 8.51549 17.444 10.2606
734 2 8.37947 14.2443 14.0075
1034 2 11.8085 17.0313 15.6957
576 2 8.6726 16.2861 13.6045
1798 1 8.12042 14.9753 15.8381
543 3 11.8808 15.517 16.3709
1445 2 9.6466 13.2314 15.4908
1094 1 12.3306 13.4517 15.8254
1735 1 10.597 15.1178 14.2273
145 2 12.3312 16.2601 13.3012
1430 2 8.72832 17.2162 16.1892
340 2 13.819 13.3324 12.526
1346 2 13.9106 16.5149 12.7795
1362 1 16.0318 16.787 16.1553
983 1 14.0605 14.854 14.4954
1302 3 15.9574 15.0492 15.6097
1527 1 15.2016 14.0415 17.1727
161 1 16.7556 13.4053 14.5343
111 1 16.1388 16.3389 13.3248
1878 2 22.7991 12.7986 13.2596
329 2 21.0851 16.3999 12.332
1441 1 20.2428 13.4989 14.8877
1010 3 19.3607 15.4843 15.625
372 1 18.6073 15.7919 13.9469
615 1 17.8524 14.5821 17.1544
1687 1 21.2931 15.9894 15.0514
1772 2 19.9695 14.8772 16.6985
637 2 21.9519 13.4712 17.1978
219 2 22.15 16.0936 17.2776
614 1 30.3208 16.8787 13.4838
1041 2 26.5302 17.0847 16.3606
1815 2 25.6118 12.4186 14.5927
1005 1 26.4872 14.2682 13.6396
1589 1 23.4755 13.3846 16.0357
1736 1 26.4291 14.7802 17.4525
579 2 26.7934 15.9567 15.1006
1494 2 26.7499 16.1662 13.1604
1012 1 24.1 15.6088 15.723
1169 2 28.2699 16.0001 14.1057
87 2 31.8143 15.4096 14.2082
1999 1 27.6061 12.9879 15.5715
1369 3 12.611 17.0924 7.18884
946 2 28.9888 3.86343 17.6992
596 1 13.4904 16.8623 17.263
1329 2 23.4408 12.1077 3.45037
1310 1 30.7299 7.86776 3.02296
1689 1 5.09839 6.35653 20.6374
1747 1 4.22489 4.13548 18.0525
1720 1 3.19763 7.27296 17.7227
701 2 6.11716 5.07217 19.0474
1639 2 5.11331 6.15964 18.5787
283 2 6.6944 3.50916 18.3087
915 1 7.70009 7.6227 19.5873
1114 3 3.69615 5.52251 19.5095
1795 1 3.58581 4.03323 21.2015
1760 2 6.96673 6.83989 22.3115
500 2 27.8645 14.0916 28.1589
644 1 12.1127 7.60876 20.7071
1257 1 10.9548 4.60829 20.2129
1152 2 10.0696 7.0055 20.3791
814 1 8.44037 4.51164 19.8469
1566 2 12.1509 6.58612 18.9347
249 1 9.9414 6.72857 18.1933
557 3 28.3554 16.9803 29.3499
824 2 8.52612 3.81182 22.0148
1949 3 12.3308 3.71612 18.8733
1733 2 14.4614 7.23215 20.9661
973 1 13.4219 5.35161 19.8823
437 2 16.7235 6.63917 18.6231
1693 1 16.6866 5.96616 20.5404
154 1 14.8632 7.38196 18.4242
1177 1 15.1048 3.66706 18.903
1224 2 16.1668 3.32122 20.8528
1600 2 20.0402 5.4503 20.0137
506 2 20.6221 5.10495 17.9115
1559 2 21.3028 4.62007 20.9824
1556 1 18.578 3.96353 19.0309
1832 2 18.8377 6.48 20.5396
1696 1 19.0961 4.6287 21.662
1292 1 19.2527 6.85153 18.3158
398 1 20.5802 3.09193 19.7085
1590 2 22.2912 3.13644 18.1806
411 1 22.9215 5.48828 18.9684
1239 1 24.398 7.11779 20.5845
394 1 24.7501 3.70672 18.6601
794 1 26.8613 4.99996 21.6792
244 2 24.9441 5.1033 20.3029
378 3 26.6841 3.75823 19.8506
703 1 23.5962 4.18064 21.438
407 1 25.0637 7.55381 17.9959
921 2 26.5214 6.89226 21.2412
739 1 27.762 5.1965 19.1861
521 1 30.8813 5.14383 18.9337
1285 1 31.7884 6.76081 21.1033
1502 1 29.4838 4.84941 21.5313
874 3 29.8055 6.53581 20.4763
1100 3 29.8636 7.84056 20.4285
1730 1 30.0446 7.98868 18.0603
1298 2 29.0544 3.4914 19.2434
213 2 14.4143 2.96054 31.2806
649 2 5.73825 8.93557 20.2828
1708 2 5.87597 8.33878 21.7899
1466 1 3.87594 8.80288 22.4576
197 1 5.19508 11.2334 20.3185
1476 3 4.76215 9.5675 19.1945
475 2 7.29688 11.9711 19.548
1142 2 3.26738 10.9686 21.5401
904 2 3.34802 9.86132 20.37
370 1 5.85284 8.39001 17.9353
1129 2 9.80068 8.39112 21.6031
1725 1 7.70115 10.2525 21.5379
1950 3 11.6279 9.50208 18.942
512 2 9.2421 11.2703 19.5623
1579 1 10.3995 10.7738 21.5637
1251 1 9.73102 8.93204 18.8225
1197 1 11.2372 11.3282 18.0094
1746 2 14.2998 8.98009 20.4268
1315 2 15.6466 8.29498 21.2249
86 1 13.7602 10.2399 18.4729
1667 1 14.7197 10.9263 21.3913
1461 1 12.8361 12.6565 20.7589
840 2 14.4934 12.5114 19.2328
1127 2 18.1681 10.928 22.1939
961 1 17.0319 11.5823 18.5833
626 2 13.1935 13.2311 18.3873
304 1 20.9168 7.68447 21.0397
1013 1 18.0744 8.69712 20.2725
897 2 18.9226 10.8996 20.4191
363 2 20.2468 12.0341 20.047
1551 1 20.8371 10.2183 19.3714
185 1 19.8624 12.6661 17.7129
531 1 21.7994 12.2482 21.3779
1915 1 18.056 12.7472 20.9764
1492 2 22.91 7.80568 19.1422
276 1 23.0361 9.55635 21.0853
1424 2 25.7771 8.64893 20.6545
934 3 22.5117 9.18151 19.0729
1290 1 22.6708 12.0813 18.7642
176 1 26.4095 10.6401 21.8746
416 1 25.2541 10.4857 18.3792
255 2 27.2888 12.9585 17.9148
1232 2 24.2321 11.9171 20.8631
1663 2 24.657 8.98854 22.0881
1913 1 27.6529 7.92022 19.5761
29 1 30.136 9.84741 20.5202
1599 3 29.1406 9.99951 17.6425
1415 2 29.9657 11.0938 17.9526
747 1 28.4539 11.416 19.5347
1080 2 28.6541 11.1894 21.756
1443 2 28.1403 12.5916 22.2929
200 1 4.66657 14.9695 19.6505
737 1 7.89396 15.7343 21.8188
1762 2 8.14494 14.7448 19.7201
499 2 6.20121 13.679 20.251
702 3 6.24634 16.5421 20.1379
460 2 6.94899 15.6136 18.8813
618 3 3.48378 15.342 21.659
619 1 6.59378 12.918 22.2768
1184 1 9.61592 13.0183 17.9958
1951 1 8.76269 13.0771 20.5973
1994 2 10.741 12.5019 19.8475
1358 1 10.2426 16.4417 17.5075
751 1 10.5395 15.2565 20.0818
1078 2 12.1755 16.7229 20.7089
829 3 12.0457 16.6266 19.2556
815 1 10.7897 16.7211 22.2083
1952 3 11.6549 13.2528 19.0508
652 2 8.59559 15.0784 18.0861
1912 1 11.3503 13.82 22.7415
259 3 9.57483 15.0155 22.0497
758 3 15.5913 17.1259 21.5954
1226 3 13.7836 14.3965 21.8532
1252 1 13.633 14.9287 19.8115
482 1 30.4676 14.199 27.8974
868 2 16.9265 15.145 18.9284
84 1 15.8057 14.6976 21.2832
599 2 15.5096 16.2459 18.5054
1450 2 17.4275 13.7965 19.3112
1411 2 3.3484 3.38706 31.0461
1495 1 18.8704 14.9269 21.2203
1349 2 20.1276 13.5525 20.2477
1409 3 20.8535 14.1312 21.4664
1449 1 20.5669 15.252 18.6728
338 1 22.1346 15.2955 22.1114
661 1 25.6791 12.9026 19.358
1757 2 25.602 12.7468 21.7088
656 1 24.0358 14.525 18.8338
1150 2 25.1041 15.5282 20.4578
1818 2 24.7332 15.4606 21.9746
1337 2 27.4125 13.1418 20.5984
1870 1 22.5599 17.0028 19.7043
1090 1 25.482 17.2668 18.6118
148 1 25.9171 17.2168 21.6344
976 1 31.37 13.0045 19.5176
1499 1 28.9547 16.7484 18.995
1576 1 29.3399 13.6935 17.6479
633 2 28.5976 16.1849 21.432
1206 1 29.3632 14.2936 20.8957
294 2 27.5974 13.9737 19.0516
167 2 30.4709 15.2672 18.9208
246 2 31.2388 14.4004 21.8963
251 2 4.28014 6.98271 24.0191
724 2 4.81956 3.76143 23.2841
1925 1 6.4001 5.55355 23.7563
448 1 3.81868 5.61201 25.6012
1814 2 3.88399 5.87716 22.7475
1971 2 5.94197 6.07145 26.9361
1233 2 6.62028 4.68343 26.2702
297 2 5.47178 7.47928 25.4922
1517 2 3.1525 3.41968 26.1538
83 2 7.77504 7.01071 23.8845
1319 2 7.85023 4.10063 23.4217
1884 1 9.54128 6.10502 22.4386
1784 1 12.2177 5.44877 26.6874
1706 3 9.83943 7.07401 24.3405
674 1 8.89932 5.19748 25.2985
1933 1 11.9138 6.7839 23.8839
1038 2 10.3195 3.55768 27.0378
27 1 12.7751 4.36985 22.9847
564 2 16.9976 4.06984 22.4706
679 1 14.9699 6.43674 23.2654
632 2 16.5367 3.77966 24.2772
450 1 14.3955 7.73008 25.9108
1486 3 13.534 5.96059 24.7624
1946 2 13.5574 4.41002 25.2718
264 2 16.025 5.47061 25.0098
1627 3 15.9255 6.17133 26.3968
502 2 13.8025 3.73154 26.7883
597 1 16.9204 4.22635 26.5242
503 2 20.3329 6.09693 23.3783
858 1 18.0558 5.78291 24.2035
396 2 20.7889 7.47492 22.8939
753 2 20.3355 4.62326 23.8584
1175 2 19.0561 4.81191 25.8198
965 1 20.9527 6.38855 25.2054
1646 2 20.4781 4.45596 26.9613
1464 1 21.3429 3.10197 22.976
391 2 22.4362 4.33128 26.1857
493 1 22.5373 5.93949 22.9734
1522 2 21.7859 4.42234 24.4137
1408 2 25.099 5.88191 22.1855
55 2 24.2341 7.44392 23.1563
190 1 26.1305 5.04134 24.0596
1670 1 23.6577 2.92479 24.0818
1984 1 23.4068 6.32938 25.8496
359 2 28.0824 4.07786 26.6013
1214 2 26.1336 6.81387 25.2087
1245 2 26.3486 4.64128 26.3915
1519 3 25.3068 7.46898 26.2632
1039 2 27.6428 5.88561 26.1157
1805 2 27.8812 6.10861 22.7846
143 1 31.3069 3.4684 24.3165
924 3 31.3296 5.28237 22.3162
857 2 29.1489 5.20554 27.0373
322 1 30.9898 6.98506 23.7485
929 1 28.4161 4.57718 24.4152
768 2 30.2291 5.52338 25.8956
883 1 28.4155 7.37903 24.9755
1990 1 30.8475 7.54958 26.3728
358 1 3.70312 8.87906 25.0616
103 1 5.80419 11.8702 25.4172
1330 1 6.5663 8.82155 24.0174
77 2 3.29997 7.19672 27.6353
1468 3 4.11961 11.2785 24.5145
1761 2 3.31671 11.1943 23.1765
180 1 6.17129 8.73327 27.195
1539 3 7.4914 10.8704 23.3073
1045 3 4.97164 10.7505 27.6325
1378 1 9.80107 9.21557 23.6525
665 2 10.4773 9.02137 27.4434
1459 1 8.32314 7.83531 25.7201
1313 2 11.7294 10.5208 23.4346
604 2 12.9159 11.6243 24.6738
1833 3 10.571 7.96047 25.5833
1930 1 8.47276 11.0779 25.6871
1910 1 12.2364 9.65777 25.3215
1829 1 8.89498 12.3534 23.4667
1348 2 10.8358 11.4037 24.542
168 2 12.5571 11.5198 26.3477
1704 1 10.3293 11.6651 27.7575
791 2 8.32223 9.1041 27.5043
970 2 12.7523 11.0889 22.3112
810 2 16.8689 11.6412 23.2419
735 1 13.7709 9.00564 23.1479
700 1 16.9173 9.08511 22.977
1359 3 15.4771 11.3076 23.6929
1371 3 15.6461 7.90418 24.1152
1654 1 14.7554 10.9421 25.5514
1269 1 17.0401 8.41656 25.8905
1743 1 19.677 9.81168 22.5611
1783 2 22.114 8.00134 26.05
1729 3 21.548 9.79937 22.6061
1029 1 17.9518 10.8687 25.0896
1186 2 19.3508 7.54201 23.6601
930 3 18.7227 9.0478 24.8477
1621 1 21.5409 11.3906 24.1803
237 2 21.9303 10.3927 26.9114
1500 1 19.5371 8.81016 26.8279
434 1 22.2449 8.59345 23.9145
1619 2 23.1635 9.5845 25.7618
583 1 24.0872 10.6645 23.544
1122 2 26.1967 10.9693 24.2555
289 1 26.4636 8.05872 23.2322
889 2 26.2156 12.3811 23.3629
639 2 25.2718 12.459 24.9989
1096 1 26.7224 9.82059 26.3989
524 1 24.3242 11.1301 26.4868
741 1 28.8477 8.16416 22.2313
124 1 28.418 10.452 23.6179
48 2 30.8725 9.155 22.9714
1838 1 30.5732 10.4136 25.3305
1633 1 30.528 12.1757 22.6661
281 2 28.9267 8.88971 26.4705
1554 2 30.0352 12.7421 26.2155
680 1 27.8398 12.3196 25.0886
763 2 5.23838 17.135 25.5488
538 1 4.19347 13.3423 22.7523
721 3 5.38067 13.8625 24.9543
351 1 4.90804 15.09 26.744
690 1 7.404 14.1893 25.3776
387 1 5.41125 15.8028 23.4227
1929 1 3.38925 12.7526 25.8271
306 2 6.72049 13.0886 27.4172
1491 2 7.98896 16.7274 24.5171
293 2 3.27002 15.6388 23.1123
1118 2 9.39178 13.0716 25.5424
1629 2 12.0646 16.7949 25.8994
777 3 13.0597 14.2233 24.2166
1718 1 10.2559 16.18 24.6756
126 2 12.0292 15.468 23.518
1610 2 9.70139 14.6439 26.1109
519 1 11.5868 14.3099 26.8477
33 2 12.7402 13.2548 25.271
892 2 15.637 13.513 26.3774
606 2 16.0967 15.5878 23.268
677 1 17.3749 13.1794 27.3608
1697 1 17.4623 13.7982 23.7795
1799 1 14.7195 13.4397 23.5034
1259 2 15.2714 15.0252 26.7059
38 1 16.758 15.6564 25.7479
330 1 13.5489 15.9465 24.7768
718 3 12.6126 16.0285 27.1476
247 3 22.2266 13.6466 24.3575
1385 1 21.183 14.0778 26.3763
743 1 19.72 13.8576 23.1636
616 2 19.0616 14.7763 25.3535
31 1 21.7664 15.6614 24.5387
1071 3 18.8618 12.9516 25.806
117 1 19.8585 16.8133 26.1507
1553 2 18.9832 15.9596 24.1858
1845 1 22.9532 16.7335 27.0152
996 1 25.6333 17.1579 26.2493
972 2 24.0867 16.8382 22.8099
706 1 26.8575 14.5945 22.7827
1211 1 23.7013 13.2422 23.2685
1365 2 25.5436 15.3385 24.5643
1425 3 24.1895 15.9321 24.9356
1734 2 26.0609 13.9028 24.8162
1836 1 23.8937 14.135 25.9392
118 2 27.6506 17.4692 26.2662
646 3 28.5486 15.5845 23.2263
1132 1 28.0843 15.3162 25.5253
401 1 31.38 17.3128 27.3951
317 2 29.5604 16.7144 26.4355
35 3 28.4676 13.1068 27.0568
1738 1 30.2492 15.5284 23.6029
518 2 30.8949 13.6662 24.9252
851 2 32.0221 14.8743 26.2632
843 2 30.3397 15.0801 25.9372
634 2 28.675 17.1429 22.6798
1698 1 30.1616 17.031 30.3499
79 1 4.17953 5.1095 30.083
877 2 6.07122 5.73043 28.3314
1028 3 7.79788 4.48043 29.8753
1857 1 5.03207 3.92621 27.6411
846 2 4.48412 6.021 28.1442
865 1 6.39976 6.84034 30.6033
1850 2 6.274 4.7152 29.782
315 2 4.19968 7.39614 31.6989
1187 2 4.93951 5.57252 32.3773
775 1 7.9791 3.51009 27.9954
1557 1 8.02743 6.74949 27.9175
1335 2 11.811 4.92451 30.3973
903 1 9.60342 5.29913 30.6293
1831 2 11.2924 5.01119 28.6769
477 1 11.4183 7.21777 28.8399
1049 2 12.1058 3.47527 27.7685
1897 2 11.779 6.39452 31.2943
354 1 13.1648 5.02066 31.8048
1868 3 17.7683 3.13069 30.9315
911 2 13.6867 6.66022 27.8145
1352 2 15.2738 3.12038 27.844
935 1 15.9259 3.90676 30.088
17 1 16.0644 6.78582 28.43
568 1 17.4565 7.64839 30.7806
362 2 15.2373 6.58677 31.5953
533 1 13.5378 4.84964 29.0901
1131 2 14.0137 6.95297 29.6985
1054 2 13.3946 7.64043 31.9386
1906 1 18.5546 2.81342 28.071
554 1 21.2401 3.68871 28.9746
825 3 20.4498 6.80858 29.9452
1665 2 18.1979 4.21595 29.8898
752 1 18.8642 5.60241 27.9587
1311 2 20.6069 5.4278 30.4338
271 1 19.8285 3.75503 31.0512
885 1 21.5279 6.7086 28.0606
1025 3 18.1192 7.49982 28.677
218 2 19.4624 7.71394 29.5115
483 2 24.8769 7.99662 31.8885
1848 2 21.9679 3.95129 30.8529
866 2 23.1965 4.57841 29.3928
1011 1 24.1444 4.21834 27.3786
1964 1 25.6894 5.42792 30.3619
1787 2 23.7438 5.91092 29.06
1752 1 26.4611 7.71464 27.8359
1231 3 26.2801 4.38477 27.8538
234 1 22.8149 6.23565 31.0232
1785 2 26.0749 7.57499 30.7135
1493 1 28.021 3.95827 29.0908
650 2 31.6827 4.44496 26.9451
986 2 30.6695 5.65692 31.3352
1962 3 29.7574 5.42302 29.9001
490 1 30.7804 3.53517 29.9022
744 1 28.3991 6.92642 29.7042
1977 1 31.2626 6.0898 28.6594
492 1 28.6511 4.4438 31.7607
45 2 28.8019 6.87262 27.267
1800 1 3.08933 10.4003 27.3175
1367 1 4.25339 8.31351 29.3166
352 2 5.46689 8.50975 31.2084
105 2 6.28335 10.0215 30.0679
1007 2 5.11401 10.8209 28.9873
708 1 7.34917 11.2279 28.1269
507 2 7.26047 8.604 29.9214
1320 2 3.5327 11.4749 29.4159
1981 2 6.4918 12.8125 31.5593
526 2 8.23486 10.3904 30.4571
384 1 3.69259 10.6067 31.4664
1082 2 8.58851 7.15048 29.8255
1262 3 9.0075 11.5311 29.7585
1622 1 9.34031 8.99552 29.277
1306 1 11.6187 8.74004 31.2735
172 1 11.118 12.0096 30.1589
1327 2 13.0094 10.7551 30.755
273 1 12.4666 9.86567 28.1128
1429 1 9.48819 11.6876 31.8776
1834 2 14.8903 9.2518 27.7888
1106 2 14.1189 8.05856 28.3405
109 1 14.524 9.49431 30.0315
1710 1 16.5136 10.1699 31.8794
805 1 14.6007 11.9656 30.7069
459 1 16.3352 11.1125 28.6284
392 1 13.4253 12.1577 28.1485
569 1 20.509 12.2799 31.5084
1578 2 18.6371 11.441 31.9502
432 2 17.1321 8.79874 28.5377
1111 1 19.8275 11.7487 27.0616
1520 2 22.2132 12.117 27.3993
1603 1 21.4324 8.85058 30.1098
800 3 18.9397 12.2463 29.3207
228 1 19.4722 10.4654 29.5036
693 2 21.0736 11.4698 29.1262
1317 2 22.4565 11.0342 31.6268
1804 2 20.9721 9.87911 28.0948
906 2 23.4728 7.5197 29.506
722 2 8.28889 2.92076 25.2911
1017 1 23.9592 8.69187 27.7216
553 1 23.6347 11.4418 29.4985
1435 2 23.7517 8.93774 30.3564
886 1 27.144 9.47454 30.0882
1869 3 9.98887 3.50248 25.4308
975 2 30.8628 10.1598 31.6088
422 1 29.3567 11.0206 27.6846
1101 3 28.4445 8.82237 31.6874
1849 1 30.3069 12.1462 30.0429
862 3 29.3026 8.84288 30.6398
1185 1 30.8396 8.96345 29.2996
1642 2 28.4382 9.29119 28.4158
1604 2 29.4665 10.6085 29.8736
1160 2 32.1169 12.8656 28.7742
1560 2 4.59617 16.8118 28.3787
916 1 5.09356 13.6044 29.5523
558 3 7.03034 14.4649 27.6658
1437 2 3.0962 12.7907 31.2172
1336 1 3.04681 15.2622 29.4713
863 3 3.60181 13.9496 28.0547
1686 2 4.09357 14.4566 31.5062
1982 1 6.10712 15.8016 29.7096
353 1 4.42626 17.1276 31.1114
608 3 7.00852 14.0904 30.4999
651 1 8.31457 16.1541 27.9476
1110 1 8.92831 13.6104 28.9133
1503 3 10.2379 15.2569 28.2845
1389 2 10.805 14.2313 29.0983